97
charge: 0; multiplicity: 1; generated_by: Rowan; timestamp: 2025-11-28 00:29:28; name: Step 1;;
Mn   -1.55630000  -3.72280000   3.37920000
O     0.01870000   0.45610000   0.42320000
O    -3.59370000  -8.35990000   1.98980000
O    -1.29500000  -1.68550000   5.47940000
O    -2.98330000  -2.14870000   1.37120000
O    -4.28150000  -3.94490000   4.46360000
N     0.52060000  -3.40790000   3.07720000
N    -0.79420000  -5.66940000   3.64960000
C     1.15060000  -2.23820000   2.78500000
C     2.54160000  -2.11230000   2.87820000
C     3.35240000  -3.18410000   3.27450000
C     2.68330000  -4.38010000   3.54670000
C     1.28920000  -4.47350000   3.43670000
C     0.56830000  -5.73540000   3.67900000
C     1.26560000  -6.94060000   3.86060000
C     0.58910000  -8.14970000   3.98530000
C    -0.81350000  -8.06600000   3.92590000
C    -1.47720000  -6.85190000   3.76680000
C     4.88180000  -3.09060000   3.40110000
C     1.29870000  -9.50680000   4.09820000
C     0.33550000  -1.04060000   2.35620000
C     0.98380000  -0.17920000   1.25370000
C    -2.99020000  -6.80990000   3.72730000
C    -3.74230000  -8.08490000   3.37910000
C    -1.38340000  -2.54950000   4.68960000
C    -2.31220000  -2.84870000   2.06580000
C    -3.20080000  -3.94540000   4.01640000
C     5.29920000  -3.45820000   4.84440000
H     4.84930000  -2.76630000   5.57490000
H     4.99690000  -4.48240000   5.11250000
H     6.39510000  -3.39520000   4.94490000
C     5.52950000  -4.08530000   2.40800000
H     5.24710000  -3.84730000   1.36960000
H     6.62800000  -4.03170000   2.48410000
H     5.22860000  -5.12440000   2.61390000
C     5.40210000  -1.67620000   3.08740000
H     5.16780000  -1.37090000   2.05520000
H     4.98220000  -0.92270000   3.77270000
H     6.49750000  -1.65460000   3.19980000
C     2.81860000  -9.34970000   4.28770000
H     3.29360000  -8.85370000   3.42660000
H     3.06040000  -8.77190000   5.19420000
H     3.28090000 -10.34410000   4.39010000
C     1.04370000 -10.29110000   2.78730000
H     1.56100000 -11.26420000   2.81820000
H    -0.02960000 -10.48330000   2.63140000
H     1.41910000  -9.72670000   1.91810000
C     0.73580000 -10.30090000   5.29890000
H     0.90350000  -9.75960000   6.24440000
H    -0.34400000 -10.49110000   5.20140000
H     1.24010000 -11.27820000   5.37180000
H    -3.40040000  -8.95290000   3.97140000
H    -4.81420000  -7.94270000   3.61510000
H    -3.28800000  -6.03900000   3.00490000
H    -3.35740000  -6.46010000   4.70660000
H     2.35090000  -6.92520000   3.86160000
H    -1.40830000  -8.97540000   3.99410000
H     1.57620000  -0.81300000   0.57660000
H     1.66230000   0.58570000   1.67500000
H    -0.63050000  -1.39030000   1.98100000
H     0.10400000  -0.42850000   3.24570000
H     2.98490000  -1.14550000   2.64610000
H     3.25260000  -5.25230000   3.86040000
C    -0.69940000   1.51830000   1.02850000
H    -0.00790000   2.28370000   1.42750000
H    -1.32870000   1.97520000   0.25130000
H    -1.35020000   1.16740000   1.84940000
C    -4.08280000  -9.63280000   1.60120000
H    -3.97530000  -9.70810000   0.50980000
H    -3.50500000 -10.44420000   2.08100000
H    -5.14950000  -9.75540000   1.86740000
N    -1.52110000  -4.75300000  -0.03980000
C    -1.73170000  -3.63600000  -1.00300000
H    -2.68630000  -3.15440000  -0.76500000
H    -1.79090000  -4.05180000  -2.02660000
C    -2.55550000  -5.80350000  -0.19180000
H    -2.33490000  -6.59220000   0.53890000
H    -2.48470000  -6.25430000  -1.19930000
C    -0.14460000  -5.30890000  -0.20990000
H     0.55830000  -4.62610000   0.28760000
H     0.10040000  -5.31310000  -1.28820000
C    -0.64570000  -2.55900000  -0.91100000
H     0.26260000  -2.87950000  -1.45680000
H    -0.35810000  -2.45430000   0.14580000
C     0.11050000  -6.71590000   0.34070000
H    -0.42300000  -7.47710000  -0.25410000
H    -0.24380000  -6.79720000   1.37520000
C    -4.00150000  -5.36800000   0.07050000
H    -4.38950000  -4.74220000  -0.74860000
H    -4.05160000  -4.76450000   0.99560000
O    -1.13680000  -1.34070000  -1.42780000
O     1.50270000  -6.98000000   0.36720000
O    -4.82320000  -6.51590000   0.14360000
H    -0.76490000  -0.62570000  -0.87320000
H     1.81120000  -7.08470000  -0.54540000
H    -4.45900000  -7.09920000   0.84020000
H    -1.68280000  -4.18510000   1.26480000
