32
	Energy: -1412382.7762921
Mn         0.42992        0.32861       -0.95768
C         -0.61832        1.18266       -2.13529
C          0.80590        1.84511        0.01293
N         -1.11083       -0.09256        0.36220
C          1.84616        0.62220       -2.04167
C          2.64852       -1.75747        2.80857
C          3.30647       -1.79985        1.58936
C          2.61746       -1.38769        0.43217
N          1.37756       -0.87762        0.49570
C          0.69801       -0.93507        1.67344
C          1.30744       -1.35350        2.85330
C         -0.72858       -0.57459        1.56872
C         -1.65435       -0.77454        2.60014
C         -2.99995       -0.49264        2.37245
C         -3.38693       -0.02876        1.11375
C         -2.40880        0.15907        0.13936
H          3.15797       -2.07307        3.72163
H          4.32739       -2.16977        1.48725
O          3.21290       -1.51649       -0.75053
H         -1.32912       -1.16276        3.56501
H         -3.73626       -0.64460        3.16454
H         -4.43031        0.19081        0.88109
H         -2.67716        0.52802       -0.85084
O          1.03754        2.80749        0.60142
O         -1.31026        1.69211       -2.90842
O          2.71388        0.86681       -2.76330
H          0.87206       -3.00038       -2.65270
H          0.75596       -1.36648        3.79225
C         -0.01247       -1.43139       -1.89193
O         -1.07399       -1.98501       -2.08806
O          1.13560       -2.12234       -2.30821
H          2.51781       -1.68973       -1.44176
