67
	Energy: -1763640.9975919
Mn        -1.37632        0.47250        2.03782
C         -1.06173        5.02145       -0.11837
C         -4.13528       -3.56652        1.75807
O         -2.00615        1.87572        4.54376
O         -2.57137        2.25806        0.03361
O         -4.12834       -0.48881        1.66413
N          0.51924        1.23093        1.88736
N         -0.31149       -1.22364        2.31006
C          0.91255        2.53643        1.72250
C          2.24404        2.90788        1.62856
C          3.26099        1.94051        1.69703
C          2.88289        0.62787        1.88030
C          1.51507        0.28621        1.98412
C          1.06317       -1.06268        2.20042
C          1.96528       -2.14083        2.31050
C          1.51163       -3.40963        2.59783
C          0.12936       -3.56247        2.80217
C         -0.73947       -2.49396        2.65785
H          4.31243        2.22269        1.61434
H          2.19488       -4.25565        2.68024
C         -0.09130        3.64412        1.55450
O         -0.17862        3.95176        0.16555
C         -2.19634       -2.79173        2.86727
O         -2.81530       -3.08088        1.62034
C         -1.72313        1.28857        3.57340
C         -2.03441        1.57503        0.82764
C         -3.00061       -0.21190        1.85752
H         -2.70024       -1.95078        3.37330
H         -2.27948       -3.67536        3.52507
H          3.03084       -1.96286        2.16954
H         -0.28646       -4.53501        3.07133
H         -1.07397        3.37124        1.96040
H          0.26651        4.53944        2.09370
H          2.48562        3.96343        1.49037
H          3.64033       -0.15055        1.95469
H         -0.75667        5.93343        0.42642
H         -2.09973        4.76485        0.15697
H         -1.01022        5.21392       -1.19926
H         -4.15354       -4.52809        2.30634
H         -4.77630       -2.84490        2.29491
H         -4.54087       -3.71506        0.74707
H         -1.21491       -0.74579       -0.08831
N         -1.14793       -1.09883       -1.08460
C         -0.85225        0.11212       -1.91998
H         -1.67782        0.81661       -1.78183
H         -0.83146       -0.21355       -2.96980
C         -2.48252       -1.71838       -1.38650
H         -2.67483       -2.41389       -0.56174
H         -2.38966       -2.27593       -2.32817
C         -0.01772       -2.09390       -1.15506
H          0.79641       -1.70189       -0.53349
H          0.32160       -2.11634       -2.20107
C          0.43981        0.82871       -1.49029
H          1.31480        0.34077       -1.94913
H          0.53634        0.73363       -0.39885
C         -0.34657       -3.51819       -0.69201
H         -1.04533       -4.00101       -1.39610
H         -0.82324       -3.50753        0.29548
C         -3.64822       -0.71717       -1.43394
H         -3.79454       -0.34456       -2.45955
H         -3.43539        0.15769       -0.80419
O          0.41264        2.18051       -1.88665
O          0.84948       -4.25726       -0.57285
O         -4.84370       -1.34545       -1.02071
H          0.13425        2.73488       -1.12613
H          1.19390       -4.42452       -1.46260
H         -4.87609       -1.25201       -0.05334
