67
charge: 0; multiplicity: 1; energy: -2812.66281200; generated_by: Rowan; timestamp: 2025-11-24 07:09:37;;
Mn   -1.59803533   0.42082548   2.25428167
C    -1.73061639   4.47276363  -0.39259084
C    -5.02890753  -2.68931495   1.98979110
O    -1.13910816   2.40356970   4.36510280
O    -3.34633235   2.01374198   0.51723770
O    -4.14291431  -0.17891953   3.55516856
N     0.25379857   0.97110490   1.69085846
N    -0.76665191  -1.33873634   2.23988245
C     0.69980112   2.23706351   1.35926316
C     2.01759749   2.49681078   1.09949519
C     2.96374016   1.43079181   1.07615322
C     2.54103859   0.16832965   1.34063094
C     1.17150202  -0.07473554   1.72858621
C     0.65522210  -1.30329732   2.05222548
C     1.45043816  -2.49561578   2.15240798
C     0.89744080  -3.71937736   2.33603033
C    -0.54051247  -3.76812107   2.35389964
C    -1.29990110  -2.65314388   2.34377502
H     3.99840262   1.61038181   0.80907745
H     1.49148864  -4.62420592   2.33950803
C    -0.29195283   3.37897190   1.20679483
O    -0.90573865   3.34458842  -0.08262010
C    -2.75110919  -2.88649325   2.67057207
O    -3.68119519  -2.39597886   1.69274313
C    -1.36992496   1.58782602   3.55228004
C    -2.61343109   1.47732484   1.17131714
C    -3.17402611  -0.04998544   2.99895285
H    -2.94856949  -2.43063852   3.63312276
H    -2.89634455  -3.96027349   2.75610953
H     2.50189200  -2.40598311   1.94458776
H    -1.01589500  -4.74377974   2.38150412
H    -1.05738461   3.35143659   1.98094329
H     0.26938194   4.30286603   1.28326001
H     2.32862259   3.48286447   0.78603317
H     3.19859832  -0.67781039   1.23734518
H    -1.15965803   5.39346054  -0.34572941
H    -2.61078562   4.54466022   0.23821398
H    -2.05156391   4.33924663  -1.42183899
H    -5.21085056  -3.76590363   1.99579845
H    -5.36690460  -2.24813322   2.93243957
H    -5.60516262  -2.25717321   1.17664829
H    -0.72580540  -0.58211450   0.46413442
N    -0.51196480  -0.80238845  -0.61011952
C    -0.57533664   0.49668608  -1.39635587
H    -1.22696488   1.11461388  -0.79058652
H    -1.04510599   0.32335419  -2.37627952
C    -1.66435314  -1.69242559  -0.91553579
H    -1.57582204  -2.50534927  -0.18656415
H    -1.60052246  -2.12365597  -1.92105062
C     0.75142367  -1.55013043  -1.08465759
H     1.62860955  -1.07597942  -0.64865385
H     0.83019900  -1.41597129  -2.17833495
C     0.80188533   1.16796113  -1.55196910
H     1.45968371   0.63378801  -2.25012244
H     1.28924443   1.14188621  -0.58422786
C     0.81692973  -3.04096972  -0.75612062
H     0.16921244  -3.65511118  -1.39019924
H     0.50575039  -3.19026279   0.27018810
C    -2.98738738  -0.98384873  -0.73039416
H    -3.13142976  -0.15481199  -1.43534915
H    -3.02991280  -0.60268294   0.28710055
O     0.69068127   2.49549132  -2.03360416
O     2.17094071  -3.46868237  -0.83017693
O    -4.01418429  -1.94285343  -0.89757028
H     0.15716358   2.97149079  -1.38593450
H     2.39917377  -3.73645009  -1.72398289
H    -3.93302433  -2.44915395  -0.07492118