32
charge: 0; multiplicity: 1; energy: -2250.89823300; generated_by: Rowan; timestamp: 2026-01-05 06:44:20; name: Step 11;
Mn    0.17185944   0.97704178  -1.39807275
C    -0.91077978   1.97169987  -2.45051422
C     0.81497052   2.44019083  -0.47004502
H    -0.46823713  -0.17468541  -2.38203044
N    -1.29674316   0.60989357   0.00537893
C     1.47412502   1.08435561  -2.68561152
C     2.51453560  -1.16839582   2.22061665
C     3.11300830  -1.22703818   0.98749672
C     2.37267950  -0.83449462  -0.13210287
N     1.14244385  -0.33140846  -0.03349305
C     0.53125054  -0.36997836   1.17228458
C     1.18410536  -0.76551937   2.31908163
C    -0.89477040   0.01344921   1.13753025
C    -1.77784121  -0.29005161   2.16480958
C    -3.11575487   0.02198813   2.01818147
C    -3.53247000   0.62441540   0.84352428
C    -2.59233996   0.89971584  -0.13100104
H     3.06056430  -1.46479389   3.10622505
H     4.12049242  -1.58690422   0.84121611
O     2.92964852  -0.96847063  -1.33216317
H    -1.42596447  -0.79137935   3.05399644
H    -3.82302672  -0.21565590   2.80119813
H    -4.56939192   0.87418290   0.67117594
H    -2.88694311   1.36374251  -1.06130117
O     1.20101156   3.38116425   0.04347306
O    -1.62167686   2.56104541  -3.12191064
O     2.22079317   1.17391418  -3.54060658
H     2.22324200  -1.16871206  -1.98350717
H     0.68261574  -0.75018728   3.27449546
C    -0.30059228  -1.75497412  -2.02694402
O     0.72346337  -2.06903252  -2.55880136
O    -1.28093354  -2.03872266  -1.43258015
