32
Frame 18 Energy: -61246.84688135862
Mn  0.429916  0.328614  -0.957675
C  -0.618321  1.182662  -2.135291
C  0.805896  1.845105  0.012925
N  -1.110825  -0.092560  0.362197
C  1.846159  0.622201  -2.041671
C  2.648517  -1.757474  2.808566
C  3.306470  -1.799847  1.589361
C  2.617460  -1.387695  0.432175
N  1.377561  -0.877620  0.495697
C  0.698009  -0.935075  1.673439
C  1.307439  -1.353498  2.853304
C  -0.728581  -0.574587  1.568722
C  -1.654346  -0.774536  2.600139
C  -2.999955  -0.492638  2.372447
C  -3.386925  -0.028760  1.113753
C  -2.408796  0.159074  0.139360
H  3.157971  -2.073074  3.721631
H  4.327393  -2.169774  1.487247
O  3.212897  -1.516491  -0.750533
H  -1.329125  -1.162761  3.565008
H  -3.736261  -0.644598  3.164544
H  -4.430306  0.190812  0.881091
H  -2.677162  0.528023  -0.850835
O  1.037540  2.807487  0.601424
O  -1.310259  1.692107  -2.908420
O  2.713883  0.866809  -2.763302
H  0.872063  -3.000376  -2.652696
H  0.755961  -1.366478  3.792248
C  -0.012474  -1.431393  -1.891925
O  -1.073987  -1.985013  -2.088058
O  1.135597  -2.122336  -2.308205
H  2.517807  -1.689727  -1.441760
