32
Frame 20 Energy: -61247.67740884475
Mn  0.370773  0.466857  -1.385676
C  -0.716949  1.396397  -2.495409
C  0.917217  1.961465  -0.531718
O  -0.384916  -1.268384  -2.171337
N  -1.075284  0.177734  0.071689
C  1.720533  0.660098  -2.598746
C  2.802954  -1.556870  2.281451
C  3.402774  -1.585869  1.035185
C  2.656804  -1.189826  -0.097657
N  1.403295  -0.713338  0.025373
C  0.791366  -0.757544  1.240944
C  1.460487  -1.165572  2.390252
C  -0.630206  -0.358785  1.231647
C  -1.490406  -0.550405  2.320154
C  -2.831799  -0.192816  2.201899
C  -3.282850  0.343393  0.994458
C  -2.368466  0.514281  -0.042710
H  3.359583  -1.862062  3.170287
H  4.426989  -1.929930  0.886073
O  3.205216  -1.293400  -1.292502
H  -1.117339  -0.988160  3.245362
H  -3.516103  -0.338497  3.040480
H  -4.325428  0.631037  0.849352
H  -2.687701  0.940998  -0.994366
O  1.264502  2.902578  0.034162
O  -1.416325  1.966276  -3.210637
O  2.540169  0.891656  -3.372478
C  0.278970  -2.168237  -2.754094
O  1.519208  -2.241229  -2.898880
H  -0.332894  -2.992496  -3.192348
H  2.491828  -1.568454  -1.987593
H  0.959630  -1.171702  3.357045
