
                                 *****************
                                 * O   R   C   A *
                                 *****************

           --- An Ab Initio, DFT and Semiempirical electronic structure package ---

                  #######################################################
                  #                        -***-                        #
                  #          Department of theory and spectroscopy      #
                  #               Directorship: Frank Neese             #
                  #        Max Planck Institute fuer Kohlenforschung    #
                  #                Kaiser Wilhelm Platz 1               #
                  #                 D-45470 Muelheim/Ruhr               #
                  #                      Germany                        #
                  #                                                     #
                  #                  All rights reserved                #
                  #                        -***-                        #
                  #######################################################


                         Program Version 4.2.1 -  RELEASE  -


 With contributions from (in alphabetic order):
   Daniel Aravena         : Magnetic Suceptibility
   Michael Atanasov       : Ab Initio Ligand Field Theory (pilot matlab implementation)
   Alexander A. Auer      : GIAO ZORA, VPT2
   Ute Becker             : Parallelization
   Giovanni Bistoni       : ED, misc. LED, open-shell LED, HFLD
   Martin Brehm           : Molecular dynamics
   Dmytro Bykov           : SCF Hessian
   Vijay G. Chilkuri      : MRCI spin determinant printing, contributions to CSF-ICE
   Dipayan Datta          : RHF DLPNO-CCSD density
   Achintya Kumar Dutta   : EOM-CC, STEOM-CC
   Dmitry Ganyushin       : Spin-Orbit,Spin-Spin,Magnetic field MRCI
   Miquel Garcia          : C-PCM Hessian, Gaussian charge scheme
   Yang Guo               : DLPNO-NEVPT2, CIM, IAO-localization
   Andreas Hansen         : Spin unrestricted coupled pair/coupled cluster methods
   Benjamin Helmich-Paris : CASSCF linear response (MC-RPA)
   Lee Huntington         : MR-EOM, pCC
   Robert Izsak           : Overlap fitted RIJCOSX, COSX-SCS-MP3, EOM
   Christian Kollmar      : KDIIS, OOCD, Brueckner-CCSD(T), CCSD density
   Simone Kossmann        : Meta GGA functionals, TD-DFT gradient, OOMP2, MP2 Hessian
   Martin Krupicka        : AUTO-CI
   Lucas Lang             : DCDCAS
   Dagmar Lenk            : GEPOL surface, SMD
   Dimitrios Liakos       : Extrapolation schemes; Compound Job, initial MDCI parallelization
   Dimitrios Manganas     : Further ROCIS development; embedding schemes
   Dimitrios Pantazis     : SARC Basis sets
   Taras Petrenko         : DFT Hessian,TD-DFT gradient, ASA, ECA, R-Raman, ABS, FL, XAS/XES, NRVS
   Peter Pinski           : DLPNO-MP2, DLPNO-MP2 Gradient
   Christoph Reimann      : Effective Core Potentials
   Marius Retegan         : Local ZFS, SOC
   Christoph Riplinger    : Optimizer, TS searches, QM/MM, DLPNO-CCSD(T), (RO)-DLPNO pert. Triples
   Tobias Risthaus        : Range-separated hybrids, TD-DFT gradient, RPA, STAB
   Michael Roemelt        : Original ROCIS implementation
   Masaaki Saitow         : Open-shell DLPNO-CCSD energy and density
   Barbara Sandhoefer     : DKH picture change effects
   Avijit Sen             : IP-ROCIS
   Kantharuban Sivalingam : CASSCF convergence, NEVPT2, FIC-MRCI
   Bernardo de Souza      : ESD, SOC TD-DFT
   Georgi Stoychev        : AutoAux, RI-MP2 NMR
   Willem Van den Heuvel  : Paramagnetic NMR
   Boris Wezisla          : Elementary symmetry handling
   Frank Wennmohs         : Technical directorship


 We gratefully acknowledge several colleagues who have allowed us to
 interface, adapt or use parts of their codes:
   Stefan Grimme, W. Hujo, H. Kruse,             : VdW corrections, initial TS optimization,
                  C. Bannwarth                     DFT functionals, gCP, sTDA/sTD-DF
   Ed Valeev, F. Pavosevic, A. Kumar             : LibInt (2-el integral package), F12 methods
   Garnet Chan, S. Sharma, J. Yang, R. Olivares  : DMRG
   Ulf Ekstrom                                   : XCFun DFT Library
   Mihaly Kallay                                 : mrcc  (arbitrary order and MRCC methods)
   Andreas Klamt, Michael Diedenhofen            : otool_cosmo (COSMO solvation model)
   Jiri Pittner, Ondrej Demel                    : Mk-CCSD
   Frank Weinhold                                : gennbo (NPA and NBO analysis)
   Christopher J. Cramer and Donald G. Truhlar   : smd solvation model
   Lars Goerigk                                  : TD-DFT with DH, B97 family of functionals
   V. Asgeirsson, H. Jonsson                     : NEB implementation
   FAccTs GmbH                                   : IRC, NEB, NEB-TS, Multilevel, MM, QM/MM, CI optimization
   S Lehtola, MJT Oliveira, MAL Marques          : LibXC Library


 Your calculation uses the libint2 library for the computation of 2-el integrals
 For citations please refer to: http://libint.valeyev.net

 Your ORCA version has been built with support for libXC version: 4.2.3
 For citations please refer to: https://tddft.org/programs/libxc/

 This ORCA versions uses:
   CBLAS   interface :  Fast vector & matrix operations
   LAPACKE interface :  Fast linear algebra routines
   SCALAPACK package :  Parallel linear algebra routines




***************************************
The coordinates will be read from file: ./coord.xyz
***************************************


Your calculation utilizes the atom-pairwise dispersion correction
with the Becke-Johnson damping scheme (D3BJ)
Cite in your paper:
S.Grimme, S.Ehrlich, L.Goerigk, J Comput Chem, (2011), 32, 1456–1465 
S.Grimme, J.Antony, S.Ehrlich and H.Krieg, J.Chem.Phys., 132, (2010), 154104 
   

----- Orbital basis set information -----
Your calculation utilizes the basis: def2-TZVPPD
   F. Weigend and R. Ahlrichs, Phys. Chem. Chem. Phys. 7, 3297 (2005).
   D. Rappoport and F. Furche, J. Chem. Phys. 133 134105 (2010).

----- AuxJ basis set information -----
Your calculation utilizes the auxiliary basis: def2/J
   F. Weigend, Phys. Chem. Chem. Phys. 8, 1057 (2006).

================================================================================
                                        WARNINGS
                       Please study these warnings very carefully!
================================================================================


WARNING: Geometry Optimization
  ===> : Switching off AutoStart
         For restart on a previous wavefunction, please use MOREAD

INFO   : the flag for use of LIBINT has been found!

================================================================================
                                       INPUT FILE
================================================================================
NAME = input.inp
|  1> ! UKS B3LYP def2-TZVPPD def2/J RIJCOSX D3BJ OptTS Freq CPCM(DMF) TightOpt TightSCF Grid5 FinalGrid6
|  2> %geom   
|  3>     Calc_Hess true
|  4>     Recalc_Hess 3
|  5>     Trust 0.2
|  6> end
|  7> 
|  8> 
|  9> %pal
| 10>     nprocs 16
| 11> end
| 12> %maxcore 4500
| 13> * XYZFILE 0 1 ./coord.xyz
| 14> 
| 15>                          ****END OF INPUT****
================================================================================

                       *****************************
                       * Geometry Optimization Run *
                       *****************************

Geometry optimization settings:
Update method            Update   .... Bofill
Choice of coordinates    CoordSys .... Z-matrix Internals
Initial Hessian          InHess   .... Almoef's Model

Convergence Tolerances:
Energy Change            TolE     ....  1.0000e-06 Eh
Max. Gradient            TolMAXG  ....  1.0000e-04 Eh/bohr
RMS Gradient             TolRMSG  ....  3.0000e-05 Eh/bohr
Max. Displacement        TolMAXD  ....  1.0000e-03 bohr
RMS Displacement         TolRMSD  ....  6.0000e-04 bohr
Strict Convergence                ....  False
------------------------------------------------------------------------------
                        ORCA OPTIMIZATION COORDINATE SETUP
------------------------------------------------------------------------------

The optimization will be done in new redundant internal coordinates
Making redundant internal coordinates   ...  (new redundants) done
Following TS mode number                ...     0
Evaluating the initial hessian          ...  (Is done on the fly) done
Evaluating the coordinates              ...  done
Calculating the B-matrix                .... done
Calculating the G-matrix                .... done
Diagonalizing the G-matrix              .... done
Small eigenvalue found = 2.566e-02
The first mode is                       ....  101
The number of degrees of freedom        ....   90

    -----------------------------------------------------------------
                    Redundant Internal Coordinates


    -----------------------------------------------------------------
         Definition                    Initial Value    d2E/dq (diagonal element)
    -----------------------------------------------------------------
      1. B(C   1,Mn  0)                  1.8497         0.000000   
      2. B(C   2,Mn  0)                  1.8301         0.000000   
      3. B(N   4,Mn  0)                  2.0718         0.000000   
      4. B(C   5,Mn  0)                  1.8885         0.000000   
      5. B(C   7,C   6)                  1.3629         0.000000   
      6. B(C   8,C   7)                  1.4034         0.000000   
      7. B(N   9,Mn  0)                  2.1014         0.000000   
      8. B(N   9,C   8)                  1.3335         0.000000   
      9. B(C  10,N   9)                  1.3486         0.000000   
     10. B(C  11,C  10)                  1.3682         0.000000   
     11. B(C  11,C   6)                  1.3943         0.000000   
     12. B(C  12,C  10)                  1.4740         0.000000   
     13. B(C  12,N   4)                  1.3363         0.000000   
     14. B(C  13,C  12)                  1.3825         0.000000   
     15. B(C  14,C  13)                  1.3776         0.000000   
     16. B(C  15,C  14)                  1.3797         0.000000   
     17. B(C  16,C  15)                  1.3765         0.000000   
     18. B(C  16,N   4)                  1.3282         0.000000   
     19. B(H  17,C   6)                  1.0788         0.000000   
     20. B(H  18,C   7)                  1.0767         0.000000   
     21. B(O  19,C   8)                  1.3027         0.000000   
     22. B(H  20,C  13)                  1.0757         0.000000   
     23. B(H  21,C  14)                  1.0785         0.000000   
     24. B(H  22,C  15)                  1.0771         0.000000   
     25. B(H  23,C  16)                  1.0767         0.000000   
     26. B(O  24,C   2)                  1.1360         0.000000   
     27. B(O  25,C   1)                  1.1364         0.000000   
     28. B(O  26,C   5)                  1.1306         0.000000   
     29. B(H  27,O  19)                  1.0406         0.000000   
     30. B(H  28,C  11)                  1.0754         0.000000   
     31. B(C  29,Mn  0)                  2.6190         0.000000   
     32. B(C  29,H   3)                  1.1309         0.000000   
     33. B(O  30,C  29)                  1.2245         0.000000   
     34. B(O  31,C  29)                  1.2583         0.000000   
     35. A(N   4,Mn  0,N   9)           77.8877         0.000000   
     36. A(C   1,Mn  0,N   4)           94.7270         0.000000   
     37. A(N   4,Mn  0,C  29)           93.2896         0.000000   
     38. A(C   5,Mn  0,C  29)           83.8090         0.000000   
     39. A(N   4,Mn  0,C   5)          174.7625         0.000000   
     40. A(C   2,Mn  0,N   9)           91.1629         0.000000   
     41. A(C   1,Mn  0,C   2)           92.2674         0.000000   
     42. A(N   9,Mn  0,C  29)           78.5915         0.000000   
     43. A(C   1,Mn  0,C  29)           98.7732         0.000000   
     44. A(C   2,Mn  0,C  29)          167.7333         0.000000   
     45. A(C   2,Mn  0,C   5)           90.8948         0.000000   
     46. A(C   2,Mn  0,N   4)           91.0977         0.000000   
     47. A(C   1,Mn  0,N   9)          171.9182         0.000000   
     48. A(C   5,Mn  0,N   9)           97.2297         0.000000   
     49. A(C   1,Mn  0,C   5)           90.0333         0.000000   
     50. L(Mn  0,C   1,O  25,C  29, 1) 180.9285         0.000000   
     51. L(Mn  0,C   1,O  25,C  29, 2) 179.2362         0.000000   
     52. L(Mn  0,C   2,O  24,N   9, 2) 181.4996         0.000000   
     53. L(Mn  0,C   2,O  24,N   9, 1) 178.4252         0.000000   
     54. A(C  12,N   4,C  16)          119.1504         0.000000   
     55. A(Mn  0,N   4,C  16)          125.8496         0.000000   
     56. A(Mn  0,N   4,C  12)          114.9993         0.000000   
     57. A(Mn  0,C   5,O  26)          174.8756         0.000000   
     58. A(C   7,C   6,H  17)          120.2585         0.000000   
     59. A(C   7,C   6,C  11)          119.6777         0.000000   
     60. A(C  11,C   6,H  17)          120.0157         0.000000   
     61. A(C   6,C   7,C   8)          119.0257         0.000000   
     62. A(C   8,C   7,H  18)          118.1368         0.000000   
     63. A(C   6,C   7,H  18)          122.7967         0.000000   
     64. A(N   9,C   8,O  19)          119.6686         0.000000   
     65. A(C   7,C   8,N   9)          120.7991         0.000000   
     66. A(C   7,C   8,O  19)          119.5321         0.000000   
     67. A(C   8,N   9,C  10)          119.0678         0.000000   
     68. A(Mn  0,N   9,C  10)          112.7448         0.000000   
     69. A(Mn  0,N   9,C   8)          127.0744         0.000000   
     70. A(C  11,C  10,C  12)          123.2914         0.000000   
     71. A(N   9,C  10,C  12)          114.3726         0.000000   
     72. A(N   9,C  10,C  11)          122.3103         0.000000   
     73. A(C  10,C  11,H  28)          121.1361         0.000000   
     74. A(C   6,C  11,H  28)          120.6373         0.000000   
     75. A(C   6,C  11,C  10)          118.2247         0.000000   
     76. A(C  10,C  12,C  13)          122.9051         0.000000   
     77. A(N   4,C  12,C  13)          121.3972         0.000000   
     78. A(N   4,C  12,C  10)          115.6176         0.000000   
     79. A(C  12,C  13,C  14)          119.2849         0.000000   
     80. A(C  14,C  13,H  20)          120.4438         0.000000   
     81. A(C  12,C  13,H  20)          120.2363         0.000000   
     82. A(C  13,C  14,C  15)          119.0058         0.000000   
     83. A(C  15,C  14,H  21)          120.7179         0.000000   
     84. A(C  13,C  14,H  21)          120.2685         0.000000   
     85. A(C  14,C  15,C  16)          118.4541         0.000000   
     86. A(C  16,C  15,H  22)          119.8283         0.000000   
     87. A(C  14,C  15,H  22)          121.7134         0.000000   
     88. A(N   4,C  16,C  15)          122.7050         0.000000   
     89. A(C  15,C  16,H  23)          120.4831         0.000000   
     90. A(N   4,C  16,H  23)          116.8077         0.000000   
     91. A(C   8,O  19,H  27)          109.1085         0.000000   
     92. A(H   3,C  29,O  31)          114.0754         0.000000   
     93. A(Mn  0,C  29,O  31)          106.6932         0.000000   
     94. A(H   3,C  29,O  30)          115.2895         0.000000   
     95. A(Mn  0,C  29,O  30)           92.4332         0.000000   
     96. A(O  30,C  29,O  31)          130.6174         0.000000   
     97. A(Mn  0,C  29,H   3)           65.3797         0.000000   
     98. D(C  16,N   4,Mn  0,C   5)   -146.7901         0.000000   
     99. D(C  16,N   4,Mn  0,C  29)    -90.5914         0.000000   
    100. D(C  16,N   4,Mn  0,N   9)   -168.1773         0.000000   
    101. D(C  16,N   4,Mn  0,C   1)      8.5024         0.000000   
    102. D(C  12,N   4,Mn  0,C   5)     32.8791         0.000000   
    103. D(C  12,N   4,Mn  0,C  29)     89.0778         0.000000   
    104. D(C  12,N   4,Mn  0,N   9)     11.4919         0.000000   
    105. D(C  16,N   4,Mn  0,C   2)    100.8688         0.000000   
    106. D(C  12,N   4,Mn  0,C   2)    -79.4620         0.000000   
    107. D(C  12,N   4,Mn  0,C   1)   -171.8284         0.000000   
    108. D(O  26,C   5,Mn  0,N   4)   -167.7055         0.000000   
    109. D(O  26,C   5,Mn  0,C  29)    135.7339         0.000000   
    110. D(O  26,C   5,Mn  0,C   2)    -55.3557         0.000000   
    111. D(O  26,C   5,Mn  0,N   9)   -146.6416         0.000000   
    112. D(O  26,C   5,Mn  0,C   1)     36.9125         0.000000   
    113. D(H  18,C   7,C   6,H  17)      1.8009         0.000000   
    114. D(H  18,C   7,C   6,C  11)   -175.6759         0.000000   
    115. D(C   8,C   7,C   6,H  17)    179.4311         0.000000   
    116. D(C   8,C   7,C   6,C  11)      1.9543         0.000000   
    117. D(O  19,C   8,C   7,C   6)   -174.2907         0.000000   
    118. D(O  19,C   8,C   7,H  18)      3.4503         0.000000   
    119. D(N   9,C   8,C   7,H  18)   -176.6969         0.000000   
    120. D(N   9,C   8,C   7,C   6)      5.5620         0.000000   
    121. D(C  10,N   9,Mn  0,C   2)     72.3109         0.000000   
    122. D(C  10,N   9,Mn  0,C   1)    -42.8035         0.000000   
    123. D(C   8,N   9,Mn  0,C  29)     77.8139         0.000000   
    124. D(C   8,N   9,Mn  0,C   5)     -4.3410         0.000000   
    125. D(C   8,N   9,Mn  0,N   4)    173.7361         0.000000   
    126. D(C   8,N   9,Mn  0,C   2)    -95.3907         0.000000   
    127. D(C  10,N   9,Mn  0,N   4)    -18.5623         0.000000   
    128. D(C   8,N   9,Mn  0,C   1)    149.4950         0.000000   
    129. D(C  10,N   9,C   8,O  19)    168.7150         0.000000   
    130. D(C  10,N   9,C   8,C   7)    -11.1376         0.000000   
    131. D(Mn  0,N   9,C   8,O  19)    -24.2730         0.000000   
    132. D(Mn  0,N   9,C   8,C   7)    155.8744         0.000000   
    133. D(C  10,N   9,Mn  0,C  29)   -114.4846         0.000000   
    134. D(C  10,N   9,Mn  0,C   5)    163.3606         0.000000   
    135. D(C  12,C  10,N   9,C   8)   -168.7667         0.000000   
    136. D(C  12,C  10,N   9,Mn  0)     22.4450         0.000000   
    137. D(C  11,C  10,N   9,C   8)      9.4432         0.000000   
    138. D(C  11,C  10,N   9,Mn  0)   -159.3450         0.000000   
    139. D(H  28,C  11,C  10,C  12)     -4.4331         0.000000   
    140. D(H  28,C  11,C  10,N   9)    177.5176         0.000000   
    141. D(C  10,C  11,C   6,H  17)    178.8459         0.000000   
    142. D(H  28,C  11,C   6,C   7)    176.8096         0.000000   
    143. D(C   6,C  11,C  10,N   9)     -1.9992         0.000000   
    144. D(C  10,C  11,C   6,C   7)     -3.6711         0.000000   
    145. D(C   6,C  11,C  10,C  12)    176.0501         0.000000   
    146. D(H  28,C  11,C   6,H  17)     -0.6734         0.000000   
    147. D(C  13,C  12,C  10,C  11)    -14.5670         0.000000   
    148. D(C  13,C  12,C  10,N   9)    163.6231         0.000000   
    149. D(N   4,C  12,C  10,C  11)    168.6499         0.000000   
    150. D(N   4,C  12,C  10,N   9)    -13.1601         0.000000   
    151. D(C  13,C  12,N   4,C  16)     -0.3193         0.000000   
    152. D(C  13,C  12,N   4,Mn  0)    179.9877         0.000000   
    153. D(C  10,C  12,N   4,C  16)    176.5166         0.000000   
    154. D(C  10,C  12,N   4,Mn  0)     -3.1763         0.000000   
    155. D(H  20,C  13,C  12,C  10)      1.0947         0.000000   
    156. D(H  20,C  13,C  12,N   4)    177.6963         0.000000   
    157. D(C  14,C  13,C  12,C  10)   -176.7638         0.000000   
    158. D(C  14,C  13,C  12,N   4)     -0.1623         0.000000   
    159. D(C  15,C  14,C  13,H  20)   -177.4323         0.000000   
    160. D(C  15,C  14,C  13,C  12)      0.4217         0.000000   
    161. D(H  21,C  14,C  13,H  20)      1.5595         0.000000   
    162. D(H  21,C  14,C  13,C  12)    179.4135         0.000000   
    163. D(H  22,C  15,C  14,H  21)      0.0568         0.000000   
    164. D(H  22,C  15,C  14,C  13)    179.0439         0.000000   
    165. D(C  16,C  15,C  14,H  21)   -179.1978         0.000000   
    166. D(C  16,C  15,C  14,C  13)     -0.2106         0.000000   
    167. D(H  23,C  16,C  15,H  22)     -0.3238         0.000000   
    168. D(H  23,C  16,C  15,C  14)    178.9452         0.000000   
    169. D(N   4,C  16,C  15,H  22)   -179.5506         0.000000   
    170. D(N   4,C  16,C  15,C  14)     -0.2815         0.000000   
    171. D(H  23,C  16,N   4,C  12)   -178.7055         0.000000   
    172. D(H  23,C  16,N   4,Mn  0)      0.9512         0.000000   
    173. D(C  15,C  16,N   4,C  12)      0.5479         0.000000   
    174. D(C  15,C  16,N   4,Mn  0)   -179.7954         0.000000   
    175. D(H  27,O  19,C   8,N   9)    -39.9987         0.000000   
    176. D(H  27,O  19,C   8,C   7)    139.8557         0.000000   
    177. D(O  31,C  29,Mn  0,N   9)    -58.2831         0.000000   
    178. D(O  31,C  29,Mn  0,C   5)     40.4033         0.000000   
    179. D(O  31,C  29,Mn  0,N   4)   -135.2208         0.000000   
    180. D(O  31,C  29,Mn  0,C   1)    129.4780         0.000000   
    181. D(O  30,C  29,Mn  0,N   9)     75.5853         0.000000   
    182. D(O  30,C  29,Mn  0,C   5)    174.2717         0.000000   
    183. D(O  30,C  29,Mn  0,N   4)     -1.3524         0.000000   
    184. D(O  30,C  29,Mn  0,C   2)    109.4209         0.000000   
    185. D(O  30,C  29,Mn  0,C   1)    -96.6536         0.000000   
    186. D(H   3,C  29,Mn  0,N   9)   -167.6156         0.000000   
    187. D(O  31,C  29,Mn  0,C   2)    -24.4475         0.000000   
    188. D(H   3,C  29,Mn  0,C   5)    -68.9292         0.000000   
    189. D(H   3,C  29,Mn  0,N   4)    115.4467         0.000000   
    190. D(H   3,C  29,Mn  0,C   2)   -133.7799         0.000000   
    191. D(H   3,C  29,Mn  0,C   1)     20.1455         0.000000   
    -----------------------------------------------------------------

Number of atoms                         .... 32
Number of degrees of freedom            .... 191

         *************************************************************
         *                GEOMETRY OPTIMIZATION CYCLE   1            *
         *************************************************************
---------------------------------
CARTESIAN COORDINATES (ANGSTROEM)
---------------------------------
  Mn     0.150563    0.243773   -1.335361
  C     -1.136721    1.114230   -2.338712
  C      0.725332    1.809130   -0.581270
  H     -0.552093   -1.343437   -2.965450
  N     -1.102992   -0.117686    0.274103
  C      1.386064    0.437370   -2.750509
  C      3.084282   -1.519460    2.008894
  C      3.512271   -1.613574    0.718409
  C      2.610601   -1.334366   -0.320102
  N      1.386409   -0.875873   -0.056644
  C      0.939247   -0.895163    1.215506
  C      1.755606   -1.189650    2.273241
  C     -0.500793   -0.614895    1.358404
  C     -1.211959   -0.905072    2.507906
  C     -2.569677   -0.673494    2.536844
  C     -3.185774   -0.165144    1.411863
  C     -2.413746    0.095250    0.302386
  H      3.758070   -1.738533    2.822434
  H      4.507241   -1.930247    0.455559
  O      2.974322   -1.528624   -1.555871
  H     -0.714874   -1.339274    3.357315
  H     -3.141539   -0.902908    3.422014
  H     -4.246707    0.018194    1.381337
  H     -2.863360    0.476391   -0.598704
  O      1.083524    2.763072   -0.079076
  O     -1.931006    1.662568   -2.938629
  O      2.084642    0.643967   -3.615191
  H      2.177597   -1.938643   -2.085039
  H      1.388643   -1.161076    3.283695
  C     -0.151141   -2.169949   -2.305888
  O     -0.883879   -2.505454   -1.383978
  O      0.995205   -2.575011   -2.630217

----------------------------
CARTESIAN COORDINATES (A.U.)
----------------------------
  NO LB      ZA    FRAG     MASS         X           Y           Z
   0 Mn   25.0000    0    54.940    0.284522    0.460664   -2.523466
   1 C     6.0000    0    12.011   -2.148091    2.105590   -4.419525
   2 C     6.0000    0    12.011    1.370678    3.418761   -1.098441
   3 H     1.0000    0     1.008   -1.043305   -2.538727   -5.603889
   4 N     7.0000    0    14.007   -2.084353   -0.222394    0.517979
   5 C     6.0000    0    12.011    2.619281    0.826510   -5.197708
   6 C     6.0000    0    12.011    5.828448   -2.871364    3.796260
   7 C     6.0000    0    12.011    6.637231   -3.049213    1.357596
   8 C     6.0000    0    12.011    4.933321   -2.521587   -0.604905
   9 N     7.0000    0    14.007    2.619933   -1.655160   -0.107042
  10 C     6.0000    0    12.011    1.774919   -1.691614    2.296974
  11 C     6.0000    0    12.011    3.317614   -2.248113    4.295803
  12 C     6.0000    0    12.011   -0.946361   -1.161982    2.567012
  13 C     6.0000    0    12.011   -2.290270   -1.710338    4.739256
  14 C     6.0000    0    12.011   -4.855985   -1.272719    4.793941
  15 C     6.0000    0    12.011   -6.020240   -0.312078    2.668035
  16 C     6.0000    0    12.011   -4.561319    0.179996    0.571427
  17 H     1.0000    0     1.008    7.101722   -3.285351    5.333627
  18 H     1.0000    0     1.008    8.517451   -3.647638    0.860881
  19 O     8.0000    0    15.999    5.620654   -2.888680   -2.940171
  20 H     1.0000    0     1.008   -1.350915   -2.530861    6.344406
  21 H     1.0000    0     1.008   -5.936648   -1.706249    6.466670
  22 H     1.0000    0     1.008   -8.025113    0.034382    2.610348
  23 H     1.0000    0     1.008   -5.410967    0.900249   -1.131387
  24 O     8.0000    0    15.999    2.047563    5.221449   -0.149433
  25 O     8.0000    0    15.999   -3.649073    3.141799   -5.553203
  26 O     8.0000    0    15.999    3.939402    1.216922   -6.831720
  27 H     1.0000    0     1.008    4.115062   -3.663505   -3.940152
  28 H     1.0000    0     1.008    2.624155   -2.194116    6.205284
  29 C     6.0000    0    12.011   -0.285614   -4.100609   -4.357496
  30 O     8.0000    0    15.999   -1.670289   -4.734621   -2.615340
  31 O     8.0000    0    15.999    1.880665   -4.866066   -4.970390

--------------------------------
INTERNAL COORDINATES (ANGSTROEM)
--------------------------------
 Mn     0   0   0     0.000000000000     0.00000000     0.00000000
 C      1   0   0     1.849731898297     0.00000000     0.00000000
 C      1   2   0     1.830124470491    92.26742128     0.00000000
 H      1   2   3     2.381208045718    74.75100290   194.22849995
 N      1   2   3     2.071816486454    94.72697305    91.28989083
 C      1   2   3     1.888541073379    90.03332926   269.10320337
 C      5   1   2     4.744231816584    78.55599411   187.70309608
 C      7   5   1     1.362858798870    87.21029642   340.56941497
 C      8   7   5     1.403378577102   119.02570774   358.00364108
 N      9   8   7     1.333518787701   120.79911160     5.56204054
 C     10   9   8     1.348588854050   119.06776011   348.86244133
 C     11  10   9     1.368198846788   122.31028807     9.44321092
 C      5   1   2     1.336252295212   114.99927839   188.17155403
 C     13   5   1     1.382503195313   121.39716924   179.98772786
 C     14  13   5     1.377629461027   119.28489855   359.83771463
 C     15  14  13     1.379701860531   119.00578291     0.42165552
 C      5   1   2     1.328238777889   125.84955981     8.50236048
 H      7   5   1     1.078809068077   152.49798173   157.89871255
 H      8   7   5     1.076725299116   122.79667781   180.37343405
 O      9   8   7     1.302748823733   119.53213368   185.70928083
 H     14  13   5     1.075695400351   120.23633353   177.69625117
 H     15  14  13     1.078510100527   120.26849413   179.41347225
 H     16  15  14     1.077090120728   121.71339728   179.04394514
 H     17   5   1     1.076747560539   116.80769014     0.95122005
 O      3   1   2     1.136003583164   178.06001862   136.45240796
 O      2   1   3     1.136426051436   178.90919805   323.23329621
 O      6   1   2     1.130649574771   174.87556761    36.91249419
 H     20   9   8     1.040627465974   109.10854492   139.85570898
 H     12  11  10     1.075404710547   121.13612824   177.51756487
 C      4   1   2     1.130888515984    89.04187881   200.65851450
 O     30   4   1     1.224494154284   115.28952950    80.51038377
 O     30   4   1     1.258321528578   114.07535129   261.87564854

---------------------------
INTERNAL COORDINATES (A.U.)
---------------------------
 Mn     0   0   0     0.000000000000     0.00000000     0.00000000
 C      1   0   0     3.495486708960     0.00000000     0.00000000
 C      1   2   0     3.458434040216    92.26742128     0.00000000
 H      1   2   3     4.499831074297    74.75100290   194.22849995
 N      1   2   3     3.915165759141    94.72697305    91.28989083
 C      1   2   3     3.568825421348    90.03332926   269.10320337
 C      5   1   2     8.965298849179    78.55599411   187.70309608
 C      7   5   1     2.575429889068    87.21029642   340.56941497
 C      8   7   5     2.652001172934   119.02570774   358.00364108
 N      9   8   7     2.519985303193   120.79911160     5.56204054
 C     10   9   8     2.548463601413   119.06776011   348.86244133
 C     11  10   9     2.585521117175   122.31028807     9.44321092
 C      5   1   2     2.525150883774   114.99927839   188.17155403
 C     13   5   1     2.612552418412   121.39716924   179.98772786
 C     14  13   5     2.603342395362   119.28489855   359.83771463
 C     15  14  13     2.607258662865   119.00578291     0.42165552
 C      5   1   2     2.510007530664   125.84955981     8.50236048
 H      7   5   1     2.038653689456   152.49798173   157.89871255
 H      8   7   5     2.034715936793   122.79667781   180.37343405
 O      9   8   7     2.461838498144   119.53213368   185.70928083
 H     14  13   5     2.032769710182   120.23633353   177.69625117
 H     15  14  13     2.038088722664   120.26849413   179.41347225
 H     16  15  14     2.035405349729   121.71339728   179.04394514
 H     17   5   1     2.034758004787   116.80769014     0.95122005
 O      3   1   2     2.146735659332   178.06001862   136.45240796
 O      2   1   3     2.147534008668   178.90919805   323.23329621
 O      6   1   2     2.136618049752   174.87556761    36.91249419
 H     20   9   8     1.966500918128   109.10854492   139.85570898
 H     12  11  10     2.032220386062   121.13612824   177.51756487
 C      4   1   2     2.137069583207    89.04187881   200.65851450
 O     30   4   1     2.313958604184   115.28952950    80.51038377
 O     30   4   1     2.377883077430   114.07535129   261.87564854

---------------------
BASIS SET INFORMATION
---------------------
There are 5 groups of distinct atoms

 Group   1 Type Mn  : 17s13p7d2f1g contracted to 6s6p4d2f1g pattern {842111/631111/4111/11/1}
 Group   2 Type C   : 12s6p3d1f contracted to 6s3p3d1f pattern {621111/411/111/1}
 Group   3 Type H   : 5s3p1d contracted to 3s3p1d pattern {311/111/1}
 Group   4 Type N   : 12s6p3d1f contracted to 6s3p3d1f pattern {621111/411/111/1}
 Group   5 Type O   : 12s7p3d1f contracted to 6s4p3d1f pattern {621111/4111/111/1}

Atom   0Mn   basis set group =>   1
Atom   1C    basis set group =>   2
Atom   2C    basis set group =>   2
Atom   3H    basis set group =>   3
Atom   4N    basis set group =>   4
Atom   5C    basis set group =>   2
Atom   6C    basis set group =>   2
Atom   7C    basis set group =>   2
Atom   8C    basis set group =>   2
Atom   9N    basis set group =>   4
Atom  10C    basis set group =>   2
Atom  11C    basis set group =>   2
Atom  12C    basis set group =>   2
Atom  13C    basis set group =>   2
Atom  14C    basis set group =>   2
Atom  15C    basis set group =>   2
Atom  16C    basis set group =>   2
Atom  17H    basis set group =>   3
Atom  18H    basis set group =>   3
Atom  19O    basis set group =>   5
Atom  20H    basis set group =>   3
Atom  21H    basis set group =>   3
Atom  22H    basis set group =>   3
Atom  23H    basis set group =>   3
Atom  24O    basis set group =>   5
Atom  25O    basis set group =>   5
Atom  26O    basis set group =>   5
Atom  27H    basis set group =>   3
Atom  28H    basis set group =>   3
Atom  29C    basis set group =>   2
Atom  30O    basis set group =>   5
Atom  31O    basis set group =>   5
---------------------------------
AUXILIARY/J BASIS SET INFORMATION
---------------------------------
There are 5 groups of distinct atoms

 Group   1 Type Mn  : 19s5p5d3f3g contracted to 8s5p5d2f3g pattern {121111111/11111/11111/21/111}
 Group   2 Type C   : 12s5p4d2f1g contracted to 6s4p3d1f1g pattern {711111/2111/211/2/1}
 Group   3 Type H   : 5s2p1d contracted to 3s1p1d pattern {311/2/1}
 Group   4 Type N   : 12s5p4d2f1g contracted to 6s4p3d1f1g pattern {711111/2111/211/2/1}
 Group   5 Type O   : 12s5p4d2f1g contracted to 6s4p3d1f1g pattern {711111/2111/211/2/1}

Atom   0Mn   basis set group =>   1
Atom   1C    basis set group =>   2
Atom   2C    basis set group =>   2
Atom   3H    basis set group =>   3
Atom   4N    basis set group =>   4
Atom   5C    basis set group =>   2
Atom   6C    basis set group =>   2
Atom   7C    basis set group =>   2
Atom   8C    basis set group =>   2
Atom   9N    basis set group =>   4
Atom  10C    basis set group =>   2
Atom  11C    basis set group =>   2
Atom  12C    basis set group =>   2
Atom  13C    basis set group =>   2
Atom  14C    basis set group =>   2
Atom  15C    basis set group =>   2
Atom  16C    basis set group =>   2
Atom  17H    basis set group =>   3
Atom  18H    basis set group =>   3
Atom  19O    basis set group =>   5
Atom  20H    basis set group =>   3
Atom  21H    basis set group =>   3
Atom  22H    basis set group =>   3
Atom  23H    basis set group =>   3
Atom  24O    basis set group =>   5
Atom  25O    basis set group =>   5
Atom  26O    basis set group =>   5
Atom  27H    basis set group =>   3
Atom  28H    basis set group =>   3
Atom  29C    basis set group =>   2
Atom  30O    basis set group =>   5
Atom  31O    basis set group =>   5


           ************************************************************
           *        Program running with 16 parallel MPI-processes    *
           *              working on a common directory               *
           ************************************************************
------------------------------------------------------------------------------
                           ORCA GTO INTEGRAL CALCULATION
                           -- RI-GTO INTEGRALS CHOSEN --
------------------------------------------------------------------------------

                         BASIS SET STATISTICS AND STARTUP INFO

Gaussian basis set:
 # of primitive gaussian shells          ...  611
 # of primitive gaussian functions       ... 1447
 # of contracted shells                  ...  374
 # of contracted basis functions         ... 1052
 Highest angular momentum                ...    4
 Maximum contraction depth               ...    8
Auxiliary gaussian basis set:
 # of primitive gaussian shells          ...  635
 # of primitive gaussian functions       ... 1791
 # of contracted shells                  ...  398
 # of contracted aux-basis functions     ... 1266
 Highest angular momentum                ...    4
 Maximum contraction depth               ...   12
Ratio of auxiliary to basis functions    ...  1.20
Integral package used                  ... LIBINT
 One Electron integrals                  ... done
 Ordering auxiliary basis shells         ... done
 Integral threshhold             Thresh  ...  2.500e-11
 Primitive cut-off               TCut    ...  2.500e-12
 Pre-screening matrix                    ... done
 Shell pair data                         ... 
 Ordering of the shell pairs             ... done (   0.015 sec) 57528 of 70125 pairs
 Determination of significant pairs      ... done (   0.000 sec)
 Creation of shell pair data             ... done (   0.011 sec)
 Storage of shell pair data              ... done (   0.125 sec)
 Shell pair data done in (   0.152 sec)
 Computing two index integrals           ... done
 Cholesky decomposition of the V-matrix  ... done


Timings:
 Total evaluation time                   ...   2.767 sec (  0.046 min)
 One electron matrix time                ...   0.881 sec (  0.015 min) = 31.8%
 Schwartz matrix evaluation time         ...   1.285 sec (  0.021 min) = 46.4%
 Two index repulsion integral time       ...   0.180 sec (  0.003 min) =  6.5%
 Cholesky decomposition of V             ...   0.230 sec (  0.004 min) =  8.3%
 Three index repulsion integral time     ...   0.000 sec (  0.000 min) =  0.0%



           ************************************************************
           *        Program running with 16 parallel MPI-processes    *
           *              working on a common directory               *
           ************************************************************
-------------------------------------------------------------------------------
                                 ORCA SCF
-------------------------------------------------------------------------------

------------
SCF SETTINGS
------------
Hamiltonian:
 Density Functional     Method          .... DFT(GTOs)
 Exchange Functional    Exchange        .... B88
   X-Alpha parameter    XAlpha          ....  0.666667
   Becke's b parameter  XBeta           ....  0.004200
 Correlation Functional Correlation     .... LYP
 LDA part of GGA corr.  LDAOpt          .... VWN-5
 Gradients option       PostSCFGGA      .... off
 Hybrid DFT is turned on
   Fraction HF Exchange ScalHFX         ....  0.200000
   Scaling of DF-GGA-X  ScalDFX         ....  0.720000
   Scaling of DF-GGA-C  ScalDFC         ....  0.810000
   Scaling of DF-LDA-C  ScalLDAC        ....  1.000000
   Perturbative correction              ....  0.000000
   Density functional embedding theory  .... OFF
   NL short-range parameter             ....  4.800000
 RI-approximation to the Coulomb term is turned on
   Number of auxiliary basis functions  .... 1266
   RIJ-COSX (HFX calculated with COS-X)).... on


General Settings:
 Integral files         IntName         .... input
 Hartree-Fock type      HFTyp           .... UHF
 Total Charge           Charge          ....    0
 Multiplicity           Mult            ....    1
 Number of Electrons    NEL             ....  180
 Basis Dimension        Dim             .... 1052
 Nuclear Repulsion      ENuc            ....   2444.5990126298 Eh

Convergence Acceleration:
 DIIS                   CNVDIIS         .... on
   Start iteration      DIISMaxIt       ....    12
   Startup error        DIISStart       ....  0.200000
   # of expansion vecs  DIISMaxEq       ....     5
   Bias factor          DIISBfac        ....   1.050
   Max. coefficient     DIISMaxC        ....  10.000
 Newton-Raphson         CNVNR           .... off
 SOSCF                  CNVSOSCF        .... off
 Level Shifting         CNVShift        .... on
   Level shift para.    LevelShift      ....    0.2500
   Turn off err/grad.   ShiftErr        ....    0.0010
 Zerner damping         CNVZerner       .... off
 Static damping         CNVDamp         .... on
   Fraction old density DampFac         ....    0.7000
   Max. Damping (<1)    DampMax         ....    0.9800
   Min. Damping (>=0)   DampMin         ....    0.0000
   Turn off err/grad.   DampErr         ....    0.1000
 Fernandez-Rico         CNVRico         .... off

SCF Procedure:
 Maximum # iterations   MaxIter         ....   125
 SCF integral mode      SCFMode         .... Direct
   Integral package                     .... LIBINT
 Reset frequency        DirectResetFreq ....    20
 Integral Threshold     Thresh          ....  2.500e-11 Eh
 Primitive CutOff       TCut            ....  2.500e-12 Eh

Convergence Tolerance:
 Convergence Check Mode ConvCheckMode   .... Total+1el-Energy
 Convergence forced     ConvForced      .... 0
 Energy Change          TolE            ....  1.000e-08 Eh
 1-El. energy change                    ....  1.000e-05 Eh
 DIIS Error             TolErr          ....  5.000e-07


Diagonalization of the overlap matrix:
Smallest eigenvalue                        ... 2.170e-07
Time for diagonalization                   ...    0.241 sec
Threshold for overlap eigenvalues          ... 1.000e-08
Number of eigenvalues below threshold      ... 0
Time for construction of square roots      ...    0.305 sec
Total time needed                          ...    0.551 sec

-------------------
DFT GRID GENERATION
-------------------

General Integration Accuracy     IntAcc      ...  5.010
Radial Grid Type                 RadialGrid  ... Gauss-Chebyshev
Angular Grid (max. acc.)         AngularGrid ... Lebedev-434
Angular grid pruning method      GridPruning ... 3 (G Style)
Weight generation scheme         WeightScheme... Becke
Basis function cutoff            BFCut       ...    1.0000e-11
Integration weight cutoff        WCut        ...    1.0000e-14
Grids for H and He will be reduced by one unit

# of grid points (after initial pruning)     ... 312218 (   0.0 sec)
# of grid points (after weights+screening)   ... 273083 (   0.3 sec)
nearest neighbour list constructed           ...    0.0 sec
Grid point re-assignment to atoms done       ...    0.1 sec
Grid point division into batches done        ...    2.4 sec
Reduced shell lists constructed in    3.3 sec

Total number of grid points                  ...   273083
Total number of batches                      ...     4282
Average number of points per batch           ...       63
Average number of grid points per atom       ...     8534
Average number of shells per batch           ...   231.49 (61.90%)
Average number of basis functions per batch  ...   659.19 (62.66%)
Average number of large shells per batch     ...   175.11 (75.64%)
Average number of large basis fcns per batch ...   492.54 (74.72%)
Maximum spatial batch extension              ...   2.97,  3.04,  3.56 au
Average spatial batch extension              ...   0.06,  0.06,  0.06 au

Time for grid setup =    4.098 sec

------------------------------
INITIAL GUESS: MODEL POTENTIAL
------------------------------
Loading Hartree-Fock densities                     ... done
Calculating cut-offs                               ... done
Setting up the integral package                    ... done
Initializing the effective Hamiltonian             ... done
Starting the Coulomb interaction                   ... done (   0.4 sec)
Reading the grid                                   ... done
Mapping shells                                     ... done
Starting the XC term evaluation                    ... done (   3.3 sec)
  promolecular density results
     # of electrons  =    179.995457143
     EX              =   -188.003374475
     EC              =     -6.587586320
     EX+EC           =   -194.590960795
Transforming the Hamiltonian                       ... done (   0.1 sec)
Diagonalizing the Hamiltonian                      ... done (   1.0 sec)
Back transforming the eigenvectors                 ... done (   0.1 sec)
Now organizing SCF variables                       ... done
                      ------------------
                      INITIAL GUESS DONE (   9.3 sec)
                      ------------------
--------------------
COSX GRID GENERATION
--------------------

General Integration Accuracy     IntAcc      ...  3.340
Radial Grid Type                 RadialGrid  ... Gauss-Chebyshev
Angular Grid (max. acc.)         AngularGrid ... Lebedev-50
Angular grid pruning method      GridPruning ... 3 (G Style)
Weight generation scheme         WeightScheme... Becke
Basis function cutoff            BFCut       ...    1.0000e-11
Integration weight cutoff        WCut        ...    1.0000e-14
Grids for H and He will be reduced by one unit

# of grid points (after initial pruning)     ...  16678 (   0.0 sec)
# of grid points (after weights+screening)   ...  15191 (   0.0 sec)
nearest neighbour list constructed           ...    0.0 sec
Grid point re-assignment to atoms done       ...    0.0 sec
Grid point division into batches done        ...    0.0 sec
Reduced shell lists constructed in    0.1 sec

Total number of grid points                  ...    15191
Total number of batches                      ...      256
Average number of points per batch           ...       59
Average number of grid points per atom       ...      475
Average number of shells per batch           ...   242.53 (64.85%)
Average number of basis functions per batch  ...   698.88 (66.43%)
Average number of large shells per batch     ...   187.41 (77.27%)
Average number of large basis fcns per batch ...   532.94 (76.26%)
Maximum spatial batch extension              ...   3.39,  3.76,  4.00 au
Average spatial batch extension              ...   0.12,  0.13,  0.14 au

Overlap Fitting                  UseSFitting ... on
Constructing numerical overlap ... done (      0.2 sec)
Inverting numerical overlap    ... done (      0.1 sec)
Obtaining analytic overlap     ... done (      0.0 sec)
Final contraction and storage  ... done (      0.2 sec)


General Integration Accuracy     IntAcc      ...  3.670
Radial Grid Type                 RadialGrid  ... Gauss-Chebyshev
Angular Grid (max. acc.)         AngularGrid ... Lebedev-50
Angular grid pruning method      GridPruning ... 3 (G Style)
Weight generation scheme         WeightScheme... Becke
Basis function cutoff            BFCut       ...    1.0000e-11
Integration weight cutoff        WCut        ...    1.0000e-14
Grids for H and He will be reduced by one unit

# of grid points (after initial pruning)     ...  20854 (   0.0 sec)
# of grid points (after weights+screening)   ...  18934 (   0.0 sec)
nearest neighbour list constructed           ...    0.0 sec
Grid point re-assignment to atoms done       ...    0.0 sec
Grid point division into batches done        ...    0.0 sec
Reduced shell lists constructed in    0.1 sec

Total number of grid points                  ...    18934
Total number of batches                      ...      310
Average number of points per batch           ...       61
Average number of grid points per atom       ...      592
Average number of shells per batch           ...   242.57 (64.86%)
Average number of basis functions per batch  ...   698.10 (66.36%)
Average number of large shells per batch     ...   187.05 (77.11%)
Average number of large basis fcns per batch ...   530.10 (75.93%)
Maximum spatial batch extension              ...   3.47,  4.63,  3.37 au
Average spatial batch extension              ...   0.13,  0.14,  0.14 au

Overlap Fitting                  UseSFitting ... on
Constructing numerical overlap ... done (      0.2 sec)
Inverting numerical overlap    ... done (      0.1 sec)
Obtaining analytic overlap     ... done (      0.0 sec)
Final contraction and storage  ... done (      0.2 sec)


General Integration Accuracy     IntAcc      ...  4.010
Radial Grid Type                 RadialGrid  ... Gauss-Chebyshev
Angular Grid (max. acc.)         AngularGrid ... Lebedev-110
Angular grid pruning method      GridPruning ... 3 (G Style)
Weight generation scheme         WeightScheme... Becke
Basis function cutoff            BFCut       ...    1.0000e-11
Integration weight cutoff        WCut        ...    1.0000e-14
Grids for H and He will be reduced by one unit

# of grid points (after initial pruning)     ...  40636 (   0.0 sec)
# of grid points (after weights+screening)   ...  36499 (   0.3 sec)
nearest neighbour list constructed           ...    0.0 sec
Grid point re-assignment to atoms done       ...    0.0 sec
Grid point division into batches done        ...    0.0 sec
Reduced shell lists constructed in    0.2 sec

Total number of grid points                  ...    36499
Total number of batches                      ...      583
Average number of points per batch           ...       62
Average number of grid points per atom       ...     1141
Average number of shells per batch           ...   240.89 (64.41%)
Average number of basis functions per batch  ...   693.58 (65.93%)
Average number of large shells per batch     ...   185.26 (76.91%)
Average number of large basis fcns per batch ...   524.63 (75.64%)
Maximum spatial batch extension              ...   2.90,  3.18,  3.63 au
Average spatial batch extension              ...   0.11,  0.11,  0.12 au

Overlap Fitting                  UseSFitting ... on
Constructing numerical overlap ... done (      0.3 sec)
Inverting numerical overlap    ... done (      0.1 sec)
Obtaining analytic overlap     ... done (      0.0 sec)
Final contraction and storage  ... done (      0.2 sec)

Time for X-Grid setup             =    2.767 sec

--------------------
CPCM SOLVATION MODEL
--------------------
CPCM parameters:
  Epsilon                                         ...      38.3000
  Refrac                                          ...       1.4300
  Rsolv                                           ...       1.3000
  Surface type                                    ...    GEPOL SES
  Epsilon function type                           ...         CPCM
Radii:
 Radius for Mn used is    4.2009 Bohr (=   2.2230 Ang.)
 Radius for C  used is    3.7795 Bohr (=   2.0000 Ang.)
 Radius for H  used is    2.4566 Bohr (=   1.3000 Ang.)
 Radius for N  used is    3.4582 Bohr (=   1.8300 Ang.)
 Radius for O  used is    3.2503 Bohr (=   1.7200 Ang.)
Calculating surface                               ...        done! (  0.2s)
GEPOL surface points                              ...         1029
GEPOL Volume                                      ...    2294.7739
GEPOL Surface-area                                ...    1063.6641
Calculating surface distance matrix               ...        done! (  0.0s)
Performing Cholesky decomposition & store         ...        done! (  0.2s)
Overall time for CPCM initialization              ...                 0.3s
--------------
SCF ITERATIONS
--------------
ITER       Energy         Delta-E        Max-DP      RMS-DP      [F,P]     Damp
               ***  Starting incremental Fock matrix formation  ***
  0  -2250.0758794647   0.000000000000 0.27431075  0.00122565  0.2908808 0.7000
  1  -2250.3363954923  -0.260516027612 0.25103140  0.00102543  0.1195678 0.7000
                               ***Turning on DIIS***
  2  -2250.4505435191  -0.114148026866 0.87743060  0.00247472  0.0425175 0.0000
  3  -2250.5942295467  -0.143686027524 0.03588902  0.00022712  0.1946400 0.7000
  4  -2250.6373249242  -0.043095377490 0.03388681  0.00018411  0.1085992 0.7000
  5  -2250.6581983843  -0.020873460168 0.09461621  0.00044749  0.0522044 0.0000
  6  -2250.6760746734  -0.017876289050 0.01996682  0.00011545  0.0271602 0.0000
  7  -2250.6778232840  -0.001748610609 0.03249381  0.00013329  0.0091121 0.0000
  8  -2250.6779902876  -0.000167003644 0.03628853  0.00009385  0.0035658 0.0000
  9  -2250.6780401764  -0.000049888770 0.04386068  0.00017112  0.0011476 0.0000
 10  -2250.6780492328  -0.000009056445 0.08425420  0.00021930  0.0004101 0.0000
               *** Restarting incremental Fock matrix formation ***
                                   *** Resetting DIIS ***
 11  -2250.6780619066  -0.000012673778 0.04283223  0.00032390  0.0006314 0.0000
 12  -2250.6780185557   0.000043350886 0.00304734  0.00001320  0.0050070 0.0000
 13  -2250.6780560824  -0.000037526666 0.02889980  0.00008675  0.0016224 0.0000
 14  -2250.6780624244  -0.000006342041 0.08239111  0.00023358  0.0005376 0.0000
 15  -2250.6780635161  -0.000001091639 0.11841443  0.00037000  0.0001767 0.0000
 16  -2250.6780634982   0.000000017883 0.05958416  0.00020043  0.0000333 0.0000
 17  -2250.6780635045  -0.000000006311 0.07403091  0.00014951  0.0000322 0.0000
 18  -2250.6780634853   0.000000019243 0.05693808  0.00017937  0.0000080 0.0000
 19  -2250.6780634762   0.000000009024 0.05462289  0.00014417  0.0000041 0.0000
 20  -2250.6780634850  -0.000000008752 0.01335392  0.00002593  0.0000037 0.0000
 21  -2250.6780635463  -0.000000061335 0.01724942  0.00004017  0.0000045 0.0000
 22  -2250.6780635160   0.000000030333 0.00546882  0.00001401  0.0000055 0.0000
 23  -2250.6780635786  -0.000000062579 0.00414677  0.00001572  0.0000013 0.0000
                            ***DIIS convergence achieved***

               *****************************************************
               *                     SUCCESS                       *
               *           SCF CONVERGED AFTER  24 CYCLES          *
               *****************************************************

Setting up the final grid:

General Integration Accuracy     IntAcc      ...  5.340
Radial Grid Type                 RadialGrid  ... Gauss-Chebyshev
Angular Grid (max. acc.)         AngularGrid ... Lebedev-590
Angular grid pruning method      GridPruning ... 3 (G Style)
Weight generation scheme         WeightScheme... Becke
Basis function cutoff            BFCut       ...    1.0000e-11
Integration weight cutoff        WCut        ...    1.0000e-14
Grids for H and He will be reduced by one unit

# of grid points (after initial pruning)     ... 486322 (   0.0 sec)
# of grid points (after weights+screening)   ... 422838 (   0.5 sec)
nearest neighbour list constructed           ...    0.0 sec
Grid point re-assignment to atoms done       ...    0.2 sec
Grid point division into batches done        ...    6.1 sec
Reduced shell lists constructed in    7.3 sec

Total number of grid points                  ...   422838
Total number of batches                      ...     6624
Average number of points per batch           ...       63
Average number of grid points per atom       ...    13214
Average number of shells per batch           ...   229.65 (61.40%)
Average number of basis functions per batch  ...   653.26 (62.10%)
Average number of large shells per batch     ...   173.18 (75.41%)
Average number of large basis fcns per batch ...   486.23 (74.43%)
Maximum spatial batch extension              ...   2.51,  2.38,  2.43 au
Average spatial batch extension              ...   0.05,  0.05,  0.05 au

Final grid set up in    8.7 sec
Final integration                            ... done (  13.9 sec)
Change in XC energy                          ...     0.000020967
Integrated number of electrons               ...   180.000041709
Previous integrated no of electrons          ...   179.999921300
Old exchange energy                            =    -37.791825948 Eh
New exchange energy                            =    -37.790832369 Eh
Exchange energy change after final integration =      0.000993579 Eh
Total energy after final integration           =  -2250.677049087 Eh
Final COS-X integration done in                =    39.413 sec

----------------
TOTAL SCF ENERGY
----------------

Total Energy       :        -2250.67704909 Eh          -61244.03609 eV

Components:
Nuclear Repulsion  :         2444.59901263 Eh           66520.92099 eV
Electronic Energy  :        -4695.27606172 Eh         -127764.95708 eV
One Electron Energy:        -7953.32600338 Eh         -216421.00318 eV
Two Electron Energy:         3258.04994166 Eh           88656.04610 eV
CPCM Dielectric    :           -0.03957495 Eh              -1.07689 eV

Virial components:
Potential Energy   :        -4495.40573188 Eh         -122326.20891 eV
Kinetic Energy     :         2244.72868279 Eh           61082.17282 eV
Virial Ratio       :            2.00264993


DFT components:
N(Alpha)           :       90.000020854399 electrons
N(Beta)            :       90.000020854399 electrons
N(Total)           :      180.000041708797 electrons
E(X)               :     -150.726250816795 Eh       
E(C)               :       -7.731584560628 Eh       
E(XC)              :     -158.457835377422 Eh       
DFET-embed. en.    :        0.000000000000 Eh       
CPCM Solvation Model Properties:
Surface-charge          :           -0.03493888
Charge-correction       :           -0.00038134 Eh              -0.01038 eV
Free-energy (cav+disp)  :            0.00531574 Eh               0.14465 eV
Corrected G(solv)       :        -2250.67211468 Eh          -61243.90182 eV

---------------
SCF CONVERGENCE
---------------

  Last Energy change         ...   -5.5088e-08  Tolerance :   1.0000e-08
  Last MAX-Density change    ...    0.0000e+00  Tolerance :   1.0000e-07
  Last RMS-Density change    ...    0.0000e+00  Tolerance :   5.0000e-09
  Last DIIS Error            ...    8.9580e-07  Tolerance :   5.0000e-07

             **** THE GBW FILE WAS UPDATED (input.gbw) ****
             **** DENSITY FILE WAS UPDATED (input.scfp) ****
             **** ENERGY FILE WAS UPDATED (input.en.tmp) ****
----------------------
UHF SPIN CONTAMINATION
----------------------

Warning: in a DFT calculation there is little theoretical justification to 
         calculate <S**2> as in Hartree-Fock theory. We will do it anyways
         but you should keep in mind that the values have only limited relevance

Expectation value of <S**2>     :     0.000000
Ideal value S*(S+1) for S=0.0   :     0.000000
Deviation                       :     0.000000

             **** THE GBW FILE WAS UPDATED (input.gbw) ****
             **** DENSITY FILE WAS UPDATED (input.scfp) ****
----------------
ORBITAL ENERGIES
----------------
                 SPIN UP ORBITALS
  NO   OCC          E(Eh)            E(eV) 
   0   1.0000    -235.498137     -6408.2301 
   1   1.0000     -27.332154      -743.7457 
   2   1.0000     -23.411207      -637.0513 
   3   1.0000     -23.408701      -636.9831 
   4   1.0000     -23.407954      -636.9628 
   5   1.0000     -19.213434      -522.8241 
   6   1.0000     -19.213336      -522.8214 
   7   1.0000     -19.213071      -522.8142 
   8   1.0000     -19.149141      -521.0746 
   9   1.0000     -19.102378      -519.8021 
  10   1.0000     -19.102354      -519.8015 
  11   1.0000     -14.368164      -390.9776 
  12   1.0000     -14.356191      -390.6518 
  13   1.0000     -10.292348      -280.0690 
  14   1.0000     -10.290628      -280.0222 
  15   1.0000     -10.289861      -280.0014 
  16   1.0000     -10.285625      -279.8861 
  17   1.0000     -10.280506      -279.7468 
  18   1.0000     -10.242359      -278.7088 
  19   1.0000     -10.239623      -278.6343 
  20   1.0000     -10.229248      -278.3520 
  21   1.0000     -10.203442      -277.6498 
  22   1.0000     -10.200835      -277.5788 
  23   1.0000     -10.197936      -277.5000 
  24   1.0000     -10.194373      -277.4030 
  25   1.0000     -10.189960      -277.2829 
  26   1.0000     -10.188152      -277.2337 
  27   1.0000      -3.166031       -86.1521 
  28   1.0000      -2.030979       -55.2657 
  29   1.0000      -2.025723       -55.1227 
  30   1.0000      -2.022156       -55.0257 
  31   1.0000      -1.153511       -31.3886 
  32   1.0000      -1.150612       -31.3097 
  33   1.0000      -1.149999       -31.2931 
  34   1.0000      -1.088830       -29.6286 
  35   1.0000      -1.062821       -28.9208 
  36   1.0000      -0.999255       -27.1911 
  37   1.0000      -0.982681       -26.7401 
  38   1.0000      -0.964946       -26.2575 
  39   1.0000      -0.834274       -22.7017 
  40   1.0000      -0.825392       -22.4601 
  41   1.0000      -0.818426       -22.2705 
  42   1.0000      -0.761105       -20.7107 
  43   1.0000      -0.685534       -18.6543 
  44   1.0000      -0.672255       -18.2930 
  45   1.0000      -0.640656       -17.4331 
  46   1.0000      -0.632978       -17.2242 
  47   1.0000      -0.601452       -16.3664 
  48   1.0000      -0.585064       -15.9204 
  49   1.0000      -0.573194       -15.5974 
  50   1.0000      -0.570884       -15.5345 
  51   1.0000      -0.566404       -15.4126 
  52   1.0000      -0.555669       -15.1205 
  53   1.0000      -0.528709       -14.3869 
  54   1.0000      -0.512621       -13.9491 
  55   1.0000      -0.499129       -13.5820 
  56   1.0000      -0.494400       -13.4533 
  57   1.0000      -0.492328       -13.3969 
  58   1.0000      -0.486677       -13.2431 
  59   1.0000      -0.481691       -13.1075 
  60   1.0000      -0.479707       -13.0535 
  61   1.0000      -0.473174       -12.8757 
  62   1.0000      -0.468861       -12.7584 
  63   1.0000      -0.467279       -12.7153 
  64   1.0000      -0.464644       -12.6436 
  65   1.0000      -0.463079       -12.6010 
  66   1.0000      -0.454465       -12.3666 
  67   1.0000      -0.451257       -12.2793 
  68   1.0000      -0.440134       -11.9767 
  69   1.0000      -0.436785       -11.8855 
  70   1.0000      -0.434300       -11.8179 
  71   1.0000      -0.431785       -11.7495 
  72   1.0000      -0.427702       -11.6384 
  73   1.0000      -0.421922       -11.4811 
  74   1.0000      -0.399554       -10.8724 
  75   1.0000      -0.394309       -10.7297 
  76   1.0000      -0.388887       -10.5821 
  77   1.0000      -0.363306        -9.8861 
  78   1.0000      -0.340469        -9.2646 
  79   1.0000      -0.335785        -9.1372 
  80   1.0000      -0.325996        -8.8708 
  81   1.0000      -0.317173        -8.6307 
  82   1.0000      -0.297214        -8.0876 
  83   1.0000      -0.292951        -7.9716 
  84   1.0000      -0.283199        -7.7062 
  85   1.0000      -0.275027        -7.4839 
  86   1.0000      -0.251653        -6.8478 
  87   1.0000      -0.249860        -6.7990 
  88   1.0000      -0.247500        -6.7348 
  89   1.0000      -0.245259        -6.6738 
  90   0.0000      -0.092518        -2.5175 
  91   0.0000      -0.068294        -1.8584 
  92   0.0000      -0.049855        -1.3566 
  93   0.0000      -0.046972        -1.2782 
  94   0.0000      -0.033076        -0.9000 
  95   0.0000      -0.027122        -0.7380 
  96   0.0000      -0.016010        -0.4356 
  97   0.0000      -0.014924        -0.4061 
  98   0.0000      -0.002233        -0.0608 
  99   0.0000       0.002906         0.0791 
 100   0.0000       0.004002         0.1089 
 101   0.0000       0.007422         0.2020 
 102   0.0000       0.010423         0.2836 
 103   0.0000       0.012349         0.3360 
 104   0.0000       0.019911         0.5418 
 105   0.0000       0.020041         0.5453 
 106   0.0000       0.028836         0.7847 
 107   0.0000       0.034837         0.9480 
 108   0.0000       0.037161         1.0112 
 109   0.0000       0.037713         1.0262 
 110   0.0000       0.050673         1.3789 
 111   0.0000       0.053514         1.4562 
 112   0.0000       0.057116         1.5542 
 113   0.0000       0.059532         1.6200 
 114   0.0000       0.061734         1.6799 
 115   0.0000       0.065184         1.7737 
 116   0.0000       0.075106         2.0437 
 117   0.0000       0.082229         2.2376 
 118   0.0000       0.083169         2.2632 
 119   0.0000       0.088298         2.4027 
 120   0.0000       0.091741         2.4964 
 121   0.0000       0.096577         2.6280 
 122   0.0000       0.099821         2.7163 
 123   0.0000       0.103965         2.8290 
 124   0.0000       0.109370         2.9761 
 125   0.0000       0.115276         3.1368 
 126   0.0000       0.118109         3.2139 
 127   0.0000       0.120446         3.2775 
 128   0.0000       0.122037         3.3208 
 129   0.0000       0.127409         3.4670 
 130   0.0000       0.130354         3.5471 
 131   0.0000       0.138085         3.7575 
 132   0.0000       0.142477         3.8770 
 133   0.0000       0.144666         3.9366 
 134   0.0000       0.146733         3.9928 
 135   0.0000       0.149496         4.0680 
 136   0.0000       0.151584         4.1248 
 137   0.0000       0.158017         4.2999 
 138   0.0000       0.159407         4.3377 
 139   0.0000       0.160111         4.3568 
 140   0.0000       0.164746         4.4830 
 141   0.0000       0.168822         4.5939 
 142   0.0000       0.170230         4.6322 
 143   0.0000       0.176140         4.7930 
 144   0.0000       0.179412         4.8820 
 145   0.0000       0.183827         5.0022 
 146   0.0000       0.184702         5.0260 
 147   0.0000       0.189353         5.1525 
 148   0.0000       0.193423         5.2633 
 149   0.0000       0.193686         5.2705 
 150   0.0000       0.197337         5.3698 
 151   0.0000       0.200614         5.4590 
 152   0.0000       0.207296         5.6408 
 153   0.0000       0.209448         5.6994 
 154   0.0000       0.210977         5.7410 
 155   0.0000       0.214948         5.8490 
 156   0.0000       0.219713         5.9787 
 157   0.0000       0.221259         6.0208 
 158   0.0000       0.223753         6.0886 
 159   0.0000       0.225774         6.1436 
 160   0.0000       0.228118         6.2074 
 161   0.0000       0.232660         6.3310 
 162   0.0000       0.234076         6.3695 
 163   0.0000       0.238603         6.4927 
 164   0.0000       0.241445         6.5701 
 165   0.0000       0.245147         6.6708 
 166   0.0000       0.247042         6.7223 
 167   0.0000       0.253058         6.8861 
 168   0.0000       0.255675         6.9573 
 169   0.0000       0.257386         7.0038 
 170   0.0000       0.259868         7.0714 
 171   0.0000       0.262998         7.1565 
 172   0.0000       0.265607         7.2275 
 173   0.0000       0.269220         7.3258 
 174   0.0000       0.271182         7.3792 
 175   0.0000       0.274115         7.4591 
 176   0.0000       0.277004         7.5377 
 177   0.0000       0.279714         7.6114 
 178   0.0000       0.282673         7.6919 
 179   0.0000       0.285772         7.7763 
 180   0.0000       0.289408         7.8752 
 181   0.0000       0.291672         7.9368 
 182   0.0000       0.296600         8.0709 
 183   0.0000       0.298913         8.1338 
 184   0.0000       0.299695         8.1551 
 185   0.0000       0.303475         8.2580 
 186   0.0000       0.304706         8.2915 
 187   0.0000       0.309248         8.4151 
 188   0.0000       0.312817         8.5122 
 189   0.0000       0.313087         8.5195 
 190   0.0000       0.314661         8.5624 
 191   0.0000       0.317460         8.6385 
 192   0.0000       0.320660         8.7256 
 193   0.0000       0.324491         8.8298 
 194   0.0000       0.328832         8.9480 
 195   0.0000       0.332469         9.0469 
 196   0.0000       0.332894         9.0585 
 197   0.0000       0.336971         9.1694 
 198   0.0000       0.338965         9.2237 
 199   0.0000       0.339977         9.2513 
 200   0.0000       0.342140         9.3101 
 201   0.0000       0.351023         9.5518 
 202   0.0000       0.352944         9.6041 
 203   0.0000       0.355209         9.6657 
 204   0.0000       0.356386         9.6978 
 205   0.0000       0.359393         9.7796 
 206   0.0000       0.361708         9.8426 
 207   0.0000       0.363689         9.8965 
 208   0.0000       0.365760         9.9528 
 209   0.0000       0.369642        10.0585 
 210   0.0000       0.372102        10.1254 
 211   0.0000       0.374170        10.1817 
 212   0.0000       0.376280        10.2391 
 213   0.0000       0.377759        10.2793 
 214   0.0000       0.379815        10.3353 
 215   0.0000       0.384383        10.4596 
 216   0.0000       0.385492        10.4898 
 217   0.0000       0.390488        10.6257 
 218   0.0000       0.395902        10.7730 
 219   0.0000       0.398899        10.8546 
 220   0.0000       0.400388        10.8951 
 221   0.0000       0.403221        10.9722 
 222   0.0000       0.405891        11.0449 
 223   0.0000       0.413672        11.2566 
 224   0.0000       0.414026        11.2662 
 225   0.0000       0.418401        11.3853 
 226   0.0000       0.425067        11.5667 
 227   0.0000       0.425647        11.5824 
 228   0.0000       0.429033        11.6746 
 229   0.0000       0.432447        11.7675 
 230   0.0000       0.435036        11.8379 
 231   0.0000       0.438063        11.9203 
 232   0.0000       0.441435        12.0120 
 233   0.0000       0.447405        12.1745 
 234   0.0000       0.453304        12.3350 
 235   0.0000       0.454573        12.3696 
 236   0.0000       0.457776        12.4567 
 237   0.0000       0.461378        12.5547 
 238   0.0000       0.464266        12.6333 
 239   0.0000       0.467901        12.7322 
 240   0.0000       0.469445        12.7742 
 241   0.0000       0.473367        12.8810 
 242   0.0000       0.474643        12.9157 
 243   0.0000       0.480011        13.0618 
 244   0.0000       0.482815        13.1381 
 245   0.0000       0.486153        13.2289 
 246   0.0000       0.489667        13.3245 
 247   0.0000       0.490498        13.3471 
 248   0.0000       0.495066        13.4714 
 249   0.0000       0.498762        13.5720 
 250   0.0000       0.501160        13.6373 
 251   0.0000       0.504881        13.7385 
 252   0.0000       0.511706        13.9242 
 253   0.0000       0.514155        13.9909 
 254   0.0000       0.518453        14.1078 
 255   0.0000       0.520857        14.1732 
 256   0.0000       0.524813        14.2809 
 257   0.0000       0.525308        14.2944 
 258   0.0000       0.528104        14.3704 
 259   0.0000       0.531143        14.4531 
 260   0.0000       0.538720        14.6593 
 261   0.0000       0.541107        14.7243 
 262   0.0000       0.541987        14.7482 
 263   0.0000       0.546195        14.8627 
 264   0.0000       0.548945        14.9376 
 265   0.0000       0.553905        15.0725 
 266   0.0000       0.555794        15.1239 
 267   0.0000       0.558219        15.1899 
 268   0.0000       0.561297        15.2737 
 269   0.0000       0.566722        15.4213 
 270   0.0000       0.568102        15.4588 
 271   0.0000       0.570598        15.5268 
 272   0.0000       0.574966        15.6456 
 273   0.0000       0.578054        15.7297 
 274   0.0000       0.580668        15.8008 
 275   0.0000       0.584539        15.9061 
 276   0.0000       0.588619        16.0171 
 277   0.0000       0.591033        16.0828 
 278   0.0000       0.592300        16.1173 
 279   0.0000       0.594717        16.1831 
 280   0.0000       0.596806        16.2399 
 281   0.0000       0.599721        16.3192 
 282   0.0000       0.600466        16.3395 
 283   0.0000       0.605758        16.4835 
 284   0.0000       0.608664        16.5626 
 285   0.0000       0.609510        16.5856 
 286   0.0000       0.612562        16.6687 
 287   0.0000       0.614582        16.7236 
 288   0.0000       0.618312        16.8251 
 289   0.0000       0.620810        16.8931 
 290   0.0000       0.625889        17.0313 
 291   0.0000       0.629400        17.1268 
 292   0.0000       0.631619        17.1872 
 293   0.0000       0.636373        17.3166 
 294   0.0000       0.637537        17.3483 
 295   0.0000       0.639095        17.3907 
 296   0.0000       0.642139        17.4735 
 297   0.0000       0.644769        17.5450 
 298   0.0000       0.645986        17.5782 
 299   0.0000       0.653746        17.7893 
 300   0.0000       0.655276        17.8310 
 301   0.0000       0.655986        17.8503 
 302   0.0000       0.658508        17.9189 
 303   0.0000       0.660592        17.9756 
 304   0.0000       0.664417        18.0797 
 305   0.0000       0.668302        18.1854 
 306   0.0000       0.669781        18.2257 
 307   0.0000       0.672695        18.3050 
 308   0.0000       0.673787        18.3347 
 309   0.0000       0.677753        18.4426 
 310   0.0000       0.682652        18.5759 
 311   0.0000       0.683969        18.6117 
 312   0.0000       0.686731        18.6869 
 313   0.0000       0.690204        18.7814 
 314   0.0000       0.693226        18.8636 
 315   0.0000       0.696109        18.9421 
 316   0.0000       0.698043        18.9947 
 317   0.0000       0.699686        19.0394 
 318   0.0000       0.704544        19.1716 
 319   0.0000       0.710996        19.3472 
 320   0.0000       0.715369        19.4662 
 321   0.0000       0.719371        19.5751 
 322   0.0000       0.721986        19.6462 
 323   0.0000       0.725047        19.7295 
 324   0.0000       0.728778        19.8311 
 325   0.0000       0.730100        19.8670 
 326   0.0000       0.736281        20.0352 
 327   0.0000       0.738801        20.1038 
 328   0.0000       0.741369        20.1737 
 329   0.0000       0.744114        20.2484 
 330   0.0000       0.747789        20.3484 
 331   0.0000       0.748143        20.3580 
 332   0.0000       0.756554        20.5869 
 333   0.0000       0.759565        20.6688 
 334   0.0000       0.760415        20.6920 
 335   0.0000       0.765787        20.8381 
 336   0.0000       0.767142        20.8750 
 337   0.0000       0.774970        21.0880 
 338   0.0000       0.779857        21.2210 
 339   0.0000       0.781362        21.2619 
 340   0.0000       0.783430        21.3182 
 341   0.0000       0.785527        21.3753 
 342   0.0000       0.789649        21.4875 
 343   0.0000       0.792179        21.5563 
 344   0.0000       0.800782        21.7904 
 345   0.0000       0.803762        21.8715 
 346   0.0000       0.805608        21.9217 
 347   0.0000       0.810288        22.0491 
 348   0.0000       0.812067        22.0975 
 349   0.0000       0.817381        22.2421 
 350   0.0000       0.821074        22.3426 
 351   0.0000       0.823911        22.4197 
 352   0.0000       0.826357        22.4863 
 353   0.0000       0.831049        22.6140 
 354   0.0000       0.832643        22.6574 
 355   0.0000       0.840312        22.8660 
 356   0.0000       0.849122        23.1058 
 357   0.0000       0.853092        23.2138 
 358   0.0000       0.854780        23.2598 
 359   0.0000       0.858164        23.3518 
 360   0.0000       0.862040        23.4573 
 361   0.0000       0.864914        23.5355 
 362   0.0000       0.867822        23.6146 
 363   0.0000       0.869755        23.6672 
 364   0.0000       0.874878        23.8066 
 365   0.0000       0.881995        24.0003 
 366   0.0000       0.886969        24.1356 
 367   0.0000       0.888545        24.1785 
 368   0.0000       0.892123        24.2759 
 369   0.0000       0.896399        24.3923 
 370   0.0000       0.899098        24.4657 
 371   0.0000       0.902879        24.5686 
 372   0.0000       0.905584        24.6422 
 373   0.0000       0.911556        24.8047 
 374   0.0000       0.919264        25.0145 
 375   0.0000       0.922344        25.0983 
 376   0.0000       0.926144        25.2017 
 377   0.0000       0.931970        25.3602 
 378   0.0000       0.935477        25.4556 
 379   0.0000       0.947236        25.7756 
 380   0.0000       0.947961        25.7953 
 381   0.0000       0.954191        25.9649 
 382   0.0000       0.957247        26.0480 
 383   0.0000       0.962425        26.1889 
 384   0.0000       0.968710        26.3599 
 385   0.0000       0.973652        26.4944 
 386   0.0000       0.977841        26.6084 
 387   0.0000       0.982394        26.7323 
 388   0.0000       0.988808        26.9068 
 389   0.0000       0.990567        26.9547 
 390   0.0000       0.997500        27.1433 
 391   0.0000       1.004533        27.3347 
 392   0.0000       1.005398        27.3583 
 393   0.0000       1.009566        27.4717 
 394   0.0000       1.011290        27.5186 
 395   0.0000       1.014055        27.5938 
 396   0.0000       1.018777        27.7223 
 397   0.0000       1.022692        27.8289 
 398   0.0000       1.027689        27.9648 
 399   0.0000       1.032923        28.1073 
 400   0.0000       1.041608        28.3436 
 401   0.0000       1.042652        28.3720 
 402   0.0000       1.051696        28.6181 
 403   0.0000       1.054164        28.6853 
 404   0.0000       1.056199        28.7406 
 405   0.0000       1.060220        28.8501 
 406   0.0000       1.065446        28.9923 
 407   0.0000       1.072873        29.1943 
 408   0.0000       1.077141        29.3105 
 409   0.0000       1.084998        29.5243 
 410   0.0000       1.090783        29.6817 
 411   0.0000       1.093951        29.7679 
 412   0.0000       1.104340        30.0506 
 413   0.0000       1.107625        30.1400 
 414   0.0000       1.111859        30.2552 
 415   0.0000       1.118168        30.4269 
 416   0.0000       1.125072        30.6148 
 417   0.0000       1.128419        30.7058 
 418   0.0000       1.133287        30.8383 
 419   0.0000       1.137728        30.9592 
 420   0.0000       1.144605        31.1463 
 421   0.0000       1.150048        31.2944 
 422   0.0000       1.159851        31.5611 
 423   0.0000       1.161419        31.6038 
 424   0.0000       1.168653        31.8007 
 425   0.0000       1.175249        31.9801 
 426   0.0000       1.180397        32.1202 
 427   0.0000       1.182337        32.1730 
 428   0.0000       1.194410        32.5016 
 429   0.0000       1.200419        32.6651 
 430   0.0000       1.203637        32.7526 
 431   0.0000       1.210558        32.9410 
 432   0.0000       1.213055        33.0089 
 433   0.0000       1.217119        33.1195 
 434   0.0000       1.221230        33.2314 
 435   0.0000       1.230413        33.4812 
 436   0.0000       1.238360        33.6975 
 437   0.0000       1.242825        33.8190 
 438   0.0000       1.245542        33.8929 
 439   0.0000       1.253432        34.1076 
 440   0.0000       1.259681        34.2777 
 441   0.0000       1.263061        34.3696 
 442   0.0000       1.268478        34.5170 
 443   0.0000       1.274288        34.6752 
 444   0.0000       1.280532        34.8450 
 445   0.0000       1.285446        34.9788 
 446   0.0000       1.288682        35.0668 
 447   0.0000       1.295557        35.2539 
 448   0.0000       1.298511        35.3343 
 449   0.0000       1.304777        35.5048 
 450   0.0000       1.317678        35.8558 
 451   0.0000       1.321072        35.9482 
 452   0.0000       1.326712        36.1017 
 453   0.0000       1.331089        36.2208 
 454   0.0000       1.334105        36.3028 
 455   0.0000       1.342458        36.5301 
 456   0.0000       1.351159        36.7669 
 457   0.0000       1.352227        36.7960 
 458   0.0000       1.357039        36.9269 
 459   0.0000       1.363690        37.1079 
 460   0.0000       1.370066        37.2814 
 461   0.0000       1.375393        37.4263 
 462   0.0000       1.383618        37.6502 
 463   0.0000       1.387345        37.7516 
 464   0.0000       1.396410        37.9983 
 465   0.0000       1.399092        38.0712 
 466   0.0000       1.399842        38.0916 
 467   0.0000       1.412167        38.4270 
 468   0.0000       1.413123        38.4530 
 469   0.0000       1.421358        38.6771 
 470   0.0000       1.427899        38.8551 
 471   0.0000       1.433252        39.0008 
 472   0.0000       1.437854        39.1260 
 473   0.0000       1.441703        39.2307 
 474   0.0000       1.447258        39.3819 
 475   0.0000       1.451028        39.4845 
 476   0.0000       1.453083        39.5404 
 477   0.0000       1.461003        39.7559 
 478   0.0000       1.472158        40.0595 
 479   0.0000       1.472878        40.0791 
 480   0.0000       1.484238        40.3882 
 481   0.0000       1.492692        40.6182 
 482   0.0000       1.504746        40.9462 
 483   0.0000       1.508484        41.0479 
 484   0.0000       1.514197        41.2034 
 485   0.0000       1.514591        41.2141 
 486   0.0000       1.518646        41.3245 
 487   0.0000       1.526660        41.5425 
 488   0.0000       1.541204        41.9383 
 489   0.0000       1.548252        42.1301 
 490   0.0000       1.553811        42.2813 
 491   0.0000       1.562113        42.5073 
 492   0.0000       1.567993        42.6673 
 493   0.0000       1.575267        42.8652 
 494   0.0000       1.583117        43.0788 
 495   0.0000       1.592107        43.3234 
 496   0.0000       1.593715        43.3672 
 497   0.0000       1.605257        43.6813 
 498   0.0000       1.615852        43.9696 
 499   0.0000       1.619392        44.0659 
[...]
Angular grid pruning method      GridPruning ... 3 (G Style)
Weight generation scheme         WeightScheme... Becke
Basis function cutoff            BFCut       ...    1.0000e-11
Integration weight cutoff        WCut        ...    1.0000e-14
Grids for H and He will be reduced by one unit

# of grid points (after initial pruning)     ...  16678 (   0.0 sec)
# of grid points (after weights+screening)   ...  15206 (   0.0 sec)
nearest neighbour list constructed           ...    0.0 sec
Grid point re-assignment to atoms done       ...    0.0 sec
Grid point division into batches done        ...    0.0 sec
Reduced shell lists constructed in    0.1 sec

Total number of grid points                  ...    15206
Total number of batches                      ...      256
Average number of points per batch           ...       59
Average number of grid points per atom       ...      475
Average number of shells per batch           ...   240.12 (64.20%)
Average number of basis functions per batch  ...   692.12 (65.79%)
Average number of large shells per batch     ...   185.82 (77.39%)
Average number of large basis fcns per batch ...   526.18 (76.02%)
Maximum spatial batch extension              ...   3.41,  3.76,  4.19 au
Average spatial batch extension              ...   0.13,  0.13,  0.14 au

Overlap Fitting                  UseSFitting ... on
Constructing numerical overlap ... done (      0.2 sec)
Inverting numerical overlap    ... done (      0.1 sec)
Obtaining analytic overlap     ... done (      0.0 sec)
Final contraction and storage  ... done (      0.2 sec)


General Integration Accuracy     IntAcc      ...  3.670
Radial Grid Type                 RadialGrid  ... Gauss-Chebyshev
Angular Grid (max. acc.)         AngularGrid ... Lebedev-50
Angular grid pruning method      GridPruning ... 3 (G Style)
Weight generation scheme         WeightScheme... Becke
Basis function cutoff            BFCut       ...    1.0000e-11
Integration weight cutoff        WCut        ...    1.0000e-14
Grids for H and He will be reduced by one unit

# of grid points (after initial pruning)     ...  20854 (   0.0 sec)
# of grid points (after weights+screening)   ...  18958 (   0.0 sec)
nearest neighbour list constructed           ...    0.0 sec
Grid point re-assignment to atoms done       ...    0.0 sec
Grid point division into batches done        ...    0.0 sec
Reduced shell lists constructed in    0.1 sec

Total number of grid points                  ...    18958
Total number of batches                      ...      310
Average number of points per batch           ...       61
Average number of grid points per atom       ...      592
Average number of shells per batch           ...   241.14 (64.48%)
Average number of basis functions per batch  ...   693.62 (65.93%)
Average number of large shells per batch     ...   184.76 (76.62%)
Average number of large basis fcns per batch ...   523.62 (75.49%)
Maximum spatial batch extension              ...   3.19,  4.05,  4.61 au
Average spatial batch extension              ...   0.13,  0.13,  0.14 au

Overlap Fitting                  UseSFitting ... on
Constructing numerical overlap ... done (      0.2 sec)
Inverting numerical overlap    ... done (      0.1 sec)
Obtaining analytic overlap     ... done (      0.0 sec)
Final contraction and storage  ... done (      0.2 sec)


General Integration Accuracy     IntAcc      ...  4.010
Radial Grid Type                 RadialGrid  ... Gauss-Chebyshev
Angular Grid (max. acc.)         AngularGrid ... Lebedev-110
Angular grid pruning method      GridPruning ... 3 (G Style)
Weight generation scheme         WeightScheme... Becke
Basis function cutoff            BFCut       ...    1.0000e-11
Integration weight cutoff        WCut        ...    1.0000e-14
Grids for H and He will be reduced by one unit

# of grid points (after initial pruning)     ...  40636 (   0.0 sec)
# of grid points (after weights+screening)   ...  36560 (   0.0 sec)
nearest neighbour list constructed           ...    0.0 sec
Grid point re-assignment to atoms done       ...    0.0 sec
Grid point division into batches done        ...    0.0 sec
Reduced shell lists constructed in    0.1 sec

Total number of grid points                  ...    36560
Total number of batches                      ...      586
Average number of points per batch           ...       62
Average number of grid points per atom       ...     1142
Average number of shells per batch           ...   240.21 (64.23%)
Average number of basis functions per batch  ...   691.37 (65.72%)
Average number of large shells per batch     ...   184.66 (76.87%)
Average number of large basis fcns per batch ...   522.24 (75.54%)
Maximum spatial batch extension              ...   3.08,  3.29,  4.05 au
Average spatial batch extension              ...   0.11,  0.11,  0.11 au

Overlap Fitting                  UseSFitting ... on
Constructing numerical overlap ... done (      0.3 sec)
Inverting numerical overlap    ... done (      0.1 sec)
Obtaining analytic overlap     ... done (      0.0 sec)
Final contraction and storage  ... done (      0.2 sec)

Time for X-Grid setup             =    2.300 sec

--------------------
CPCM SOLVATION MODEL
--------------------
CPCM parameters:
  Epsilon                                         ...      38.3000
  Refrac                                          ...       1.4300
  Rsolv                                           ...       1.3000
  Surface type                                    ...    GEPOL SES
  Epsilon function type                           ...         CPCM
Radii:
 Radius for Mn used is    4.2009 Bohr (=   2.2230 Ang.)
 Radius for C  used is    3.7795 Bohr (=   2.0000 Ang.)
 Radius for H  used is    2.4566 Bohr (=   1.3000 Ang.)
 Radius for N  used is    3.4582 Bohr (=   1.8300 Ang.)
 Radius for O  used is    3.2503 Bohr (=   1.7200 Ang.)
Calculating surface                               ...        done! (  0.2s)
GEPOL surface points                              ...         1127
GEPOL Volume                                      ...    2319.1054
GEPOL Surface-area                                ...    1086.1056
Calculating surface distance matrix               ...        done! (  0.0s)
Performing Cholesky decomposition & store         ...        done! (  0.2s)
Overall time for CPCM initialization              ...                 0.4s
--------------
SCF ITERATIONS
--------------
ITER       Energy         Delta-E        Max-DP      RMS-DP      [F,P]     Damp
               ***  Starting incremental Fock matrix formation  ***
  0  -2250.6460226967   0.000000000000 0.07197210  0.00038039  0.0391266 0.7000
  1  -2250.6498291846  -0.003806487902 0.04896369  0.00030347  0.0275618 0.7000
                               ***Turning on DIIS***
  2  -2250.6525516939  -0.002722509299 0.13604871  0.00075031  0.0192859 0.0000
  3  -2250.6584793311  -0.005927637146 0.05417221  0.00025842  0.0046989 0.0000
  4  -2250.6586794875  -0.000200156413 0.02108449  0.00010592  0.0053544 0.0000
  5  -2250.6587345645  -0.000055076995 0.02452897  0.00009765  0.0079078 0.0000
  6  -2250.6588338157  -0.000099251227 0.05208308  0.00017164  0.0011744 0.0000
  7  -2250.6588450929  -0.000011277227 0.07718673  0.00020122  0.0006081 0.0000
               *** Restarting incremental Fock matrix formation ***
                                   *** Resetting DIIS ***
  8  -2250.6588543471  -0.000009254217 0.23508965  0.00053164  0.0007398 0.0000
  9  -2250.6588521615   0.000002185680 0.04637995  0.00014503  0.0017051 0.0000
 10  -2250.6588570397  -0.000004878219 0.02825103  0.00013704  0.0004644 0.0000
 11  -2250.6588569861   0.000000053565 0.05836127  0.00025828  0.0006782 0.0000
 12  -2250.6588577735  -0.000000787360 0.08865582  0.00030154  0.0001394 0.0000
 13  -2250.6588579274  -0.000000153899 0.08153047  0.00024192  0.0000936 0.0000
 14  -2250.6588580206  -0.000000093184 0.06453121  0.00021319  0.0000409 0.0000
 15  -2250.6588579752   0.000000045331 0.06549625  0.00018776  0.0000269 0.0000
 16  -2250.6588579979  -0.000000022652 0.06966702  0.00022673  0.0000280 0.0000
 17  -2250.6588580103  -0.000000012397 0.01595492  0.00005794  0.0000409 0.0000
 18  -2250.6588579730   0.000000037253 0.09803842  0.00024192  0.0000357 0.0000
 19  -2250.6588580065  -0.000000033484 0.04528114  0.00009443  0.0000044 0.0000
 20  -2250.6588580143  -0.000000007797 0.02110356  0.00004405  0.0000046 0.0000
 21  -2250.6588580329  -0.000000018621 0.00392154  0.00001302  0.0000019 0.0000
 22  -2250.6588580641  -0.000000031147 0.00628420  0.00002345  0.0000022 0.0000
 23  -2250.6588580467   0.000000017387 0.00549852  0.00002290  0.0000012 0.0000
 24  -2250.6588580203   0.000000026428 0.00352005  0.00001512  0.0000049 0.0000
                            ***DIIS convergence achieved***

               *****************************************************
               *                     SUCCESS                       *
               *           SCF CONVERGED AFTER  25 CYCLES          *
               *****************************************************

Setting up the final grid:

General Integration Accuracy     IntAcc      ...  5.340
Radial Grid Type                 RadialGrid  ... Gauss-Chebyshev
Angular Grid (max. acc.)         AngularGrid ... Lebedev-590
Angular grid pruning method      GridPruning ... 3 (G Style)
Weight generation scheme         WeightScheme... Becke
Basis function cutoff            BFCut       ...    1.0000e-11
Integration weight cutoff        WCut        ...    1.0000e-14
Grids for H and He will be reduced by one unit

# of grid points (after initial pruning)     ... 486322 (   0.0 sec)
# of grid points (after weights+screening)   ... 423625 (   0.5 sec)
nearest neighbour list constructed           ...    0.0 sec
Grid point re-assignment to atoms done       ...    0.2 sec
Grid point division into batches done        ...    6.2 sec
Reduced shell lists constructed in    7.3 sec

Total number of grid points                  ...   423625
Total number of batches                      ...     6636
Average number of points per batch           ...       63
Average number of grid points per atom       ...    13238
Average number of shells per batch           ...   228.76 (61.17%)
Average number of basis functions per batch  ...   649.87 (61.77%)
Average number of large shells per batch     ...   172.65 (75.47%)
Average number of large basis fcns per batch ...   484.48 (74.55%)
Maximum spatial batch extension              ...   2.73,  3.81,  3.14 au
Average spatial batch extension              ...   0.05,  0.05,  0.05 au

Final grid set up in    8.9 sec
Final integration                            ... done (  13.5 sec)
Change in XC energy                          ...     0.000028814
Integrated number of electrons               ...   180.000016417
Previous integrated no of electrons          ...   179.999897628
Old exchange energy                            =    -37.761860004 Eh
New exchange energy                            =    -37.760768410 Eh
Exchange energy change after final integration =      0.001091594 Eh
Total energy after final integration           =  -2250.657737653 Eh
Final COS-X integration done in                =    38.271 sec
Total Energy       :        -2250.65773765 Eh          -61243.51060 eV
  Last Energy change         ...   -4.1081e-08  Tolerance :   1.0000e-08
  Last MAX-Density change    ...    0.0000e+00  Tolerance :   1.0000e-07
             **** THE GBW FILE WAS UPDATED (input.gbw) ****
             **** DENSITY FILE WAS UPDATED (input.scfp) ****
             **** ENERGY FILE WAS UPDATED (input.en.tmp) ****
----------------------
UHF SPIN CONTAMINATION
----------------------

Warning: in a DFT calculation there is little theoretical justification to 
         calculate <S**2> as in Hartree-Fock theory. We will do it anyways
         but you should keep in mind that the values have only limited relevance

Expectation value of <S**2>     :     0.000000
Ideal value S*(S+1) for S=0.0   :     0.000000
Deviation                       :     0.000000

             **** THE GBW FILE WAS UPDATED (input.gbw) ****
             **** DENSITY FILE WAS UPDATED (input.scfp) ****
Total SCF time: 0 days 0 hours 12 min 59 sec 


-------------------------------------------------------------------------------
                          DFT DISPERSION CORRECTION                            
                                                                               
                              DFTD3 V3.1  Rev 1                                
                          USING Becke-Johnson damping                          
-------------------------------------------------------------------------------
-------------------------   ----------------
Dispersion correction           -0.091553232
-------------------------   ----------------


-------------------------   --------------------
FINAL SINGLE POINT ENERGY     -2250.749290884740
-------------------------   --------------------



           ************************************************************
           *        Program running with 16 parallel MPI-processes    *
           *              working on a common directory               *
           ************************************************************
------------------------------------------------------------------------------
                         ORCA SCF GRADIENT CALCULATION
------------------------------------------------------------------------------

Gradient of the Kohn-Sham DFT energy:
Kohn-Sham wavefunction type      ... UKS
Hartree-Fock exchange scaling    ...    0.200
Number of operators              ...    2
Number of atoms                  ...   32
Basis set dimensions             ... 1052
Integral neglect threshold       ... 2.5e-11
Integral primitive cutoff        ... 2.5e-12

Nuclear repulsion gradient       ... done
One Electron Gradient            ... done
Pre-screening matrix             ... done
RI-J gradient                    ... done
COSX-gradient                    ... done
Exchange-correlation gradient    ... done
Dispersion correction            ... done

------------------
CARTESIAN GRADIENT
------------------

   1   Mn  :    0.001829298    0.002249433    0.001876073
   2   C   :   -0.001915540    0.002519174    0.000705183
   3   C   :    0.000615852    0.001871970   -0.000267933
   4   H   :    0.003488835   -0.002239631    0.001399476
   5   N   :    0.000921152   -0.000534007   -0.002089055
   6   C   :   -0.005392518   -0.000237150    0.004891932
   7   C   :    0.001038844   -0.000383599   -0.001300124
   8   C   :   -0.003180998    0.000827743   -0.002552169
   9   C   :   -0.001146880    0.000376604    0.015085652
  10   N   :    0.002006324   -0.003168818   -0.004362297
  11   C   :   -0.001773863   -0.000126261    0.001107835
  12   C   :    0.001144600   -0.000295441    0.001106939
  13   C   :   -0.000859078    0.000712968    0.002107709
  14   C   :    0.002574112   -0.000998893   -0.000425453
  15   C   :   -0.001591458    0.000406706   -0.000174866
  16   C   :    0.000051925   -0.000035427    0.000028821
  17   C   :   -0.001139516    0.000376524   -0.001181591
  18   H   :    0.000218137   -0.000260683    0.000095626
  19   H   :    0.000220763   -0.000131466    0.000068930
  20   O   :   -0.001003445   -0.001024685   -0.013112263
  21   H   :   -0.000113000    0.000034144    0.000064405
  22   H   :    0.000086248   -0.000017050   -0.000146331
  23   H   :    0.000043850   -0.000178749   -0.000045997
  24   H   :   -0.000659449    0.000102217    0.000544340
  25   O   :   -0.000328853   -0.001536712   -0.000096371
  26   O   :    0.001198780   -0.000414517    0.000474283
  27   O   :    0.002569502   -0.000333957   -0.004588337
  28   H   :    0.001961063    0.006843257    0.006456705
  29   H   :   -0.000668215    0.000274593   -0.000122181
  30   C   :   -0.003495173    0.022385528   -0.005504491
  31   O   :    0.002765828   -0.013466670    0.003064712
  32   O   :   -0.001110821   -0.016774535   -0.003954181

Difference to translation invariance:
           :   -0.0016436933   -0.0031773889   -0.0008450197

Norm of the cartesian gradient     ...    0.0418665845
RMS gradient                       ...    0.0042729904
MAX gradient                       ...    0.0223855284

-------
TIMINGS
-------

Total SCF gradient time            ...       99.160 sec

One electron gradient       ....       0.777 sec  (  0.8%)
Prescreening matrices       ....       0.839 sec  (  0.8%)
RI-J Coulomb gradient       ....       8.549 sec  (  8.6%)
COSX gradient               ....      39.164 sec  ( 39.5%)
XC gradient                 ....      41.170 sec  ( 41.5%)
CPCM gradient               ....       3.628 sec  (  3.7%)
   A-Matrix (El+Nuc)        ....       0.059 sec  (  0.1%)
   Potential                ....       3.568 sec  (  3.6%)


           ************************************************************
           *        Program running with 16 parallel MPI-processes    *
           *              working on a common directory               *
           ************************************************************

-------------------------------------------------------------------------------
                               ORCA SCF HESSIAN
-------------------------------------------------------------------------------

Hessian of the Kohn-Sham DFT energy:
Kohn-Sham wavefunction type                      ... UKS
Hartree-Fock exchange scaling                    ...    0.200
Number of operators                              ...    2
Number of atoms                                  ...   32
Basis set dimensions                             ... 1052
Integral neglect threshold                       ... 2.5e-11
Integral primitive cutoff                        ... 2.5e-12

Setting up DFT Hessian calculations              ... 
Electron density on the grid                     ... found on disk
Electron density on the final grid               ... found on disk
Building xc-kernel on the grid                   ... done   (      0.5 sec)
Building xc-kernel on the final grid             ... done   (      0.7 sec)
                                                     done   (      3.5 sec)

Nuclear repulsion Hessian                        ... done   (      0.0 sec)

----------------------------------------------
Forming right-hand sides of CP-SCF equations     ...
----------------------------------------------
One electron integral derivatives                ... done   (   1750.5 sec)
Transforming the overlap derivative matrices     ... done   (      3.3 sec)
Adding tr(S(x)F(y) C-PCM term to the hessian     ... done   (     77.9 sec)
Making the Q(x) pseudodensities                  ... done   (     12.3 sec)
Adding the E*S(x)*S(y) terms to the Hessian      ... done   (      2.7 sec)
Calculating energy weighted overlap derivatives  ... done   (     12.4 sec)
Two electron integral derivatives (RI)           ... done   (   2043.6 sec)
Exchange-correlation integral derivatives        ... done   (   1462.4 sec)
tr(F(y)Q(x)) contribution to the Hessian         ... done   (      6.2 sec)
Response fock operator R(S(x)) (RIJCOSX)         ... done   (    443.8 sec)
XC Response fock operator R(S(x))                ... done   (    682.2 sec)
tr(F(y)S(x)) contribution to the Hessian         ... done   (      0.3 sec)
Transforming and finalizing RHSs                 ... done   (     66.8 sec)

----------------------------------------------
Solving the CP-SCF equations (RIJCOSX)           ...
----------------------------------------------
IBatch 1 (of 2)
     CP-SCF ITERATION   0: 
     CP-SCF ITERATION   1:      0.100376856521
     CP-SCF ITERATION   2:      0.019984718207
     CP-SCF ITERATION   3:      0.005507708592
     CP-SCF ITERATION   4:      0.001025100088
     CP-SCF ITERATION   5:      0.000242924445
     CP-SCF ITERATION   6:      0.000040356827
     CP-SCF ITERATION   7: 