32
Frame 32 Energy: -61246.95829291971
Mn  0.386923  0.155303  -1.390383
C  -0.690956  1.143079  -2.465437
C  0.921379  1.614591  -0.474731
H  -0.239958  -1.238900  -2.441391
N  -1.085722  -0.242811  0.003058
C  1.756186  0.351855  -2.588907
C  2.802465  -2.002356  2.163651
C  3.369896  -2.057748  0.901972
C  2.602688  -1.653281  -0.211119
N  1.374009  -1.127084  -0.051381
C  0.782120  -1.165377  1.175181
C  1.469718  -1.585537  2.307080
C  -0.639050  -0.769640  1.170564
C  -1.501060  -0.970218  2.253318
C  -2.849900  -0.644541  2.120500
C  -3.304934  -0.132484  0.904322
C  -2.387455  0.058162  -0.126168
H  3.374467  -2.316900  3.039266
H  4.377490  -2.437804  0.729265
O  3.086126  -1.804468  -1.431133
H  -1.123577  -1.393201  3.183784
H  -3.537383  -0.798699  2.954869
H  -4.353780  0.124094  0.747562
H  -2.708699  0.471314  -1.082981
O  1.251930  2.536425  0.124971
O  -1.380450  1.761582  -3.146227
O  2.580636  0.541474  -3.364197
H  2.318023  -2.090917  -2.048570
H  0.990127  -1.586933  3.284913
C  -0.052849  -2.413629  -2.366131
O  -1.056253  -3.041188  -2.074416
O  1.107853  -2.762771  -2.682006
