39
Frame 11, Energy = -65436.030839 eV
Mn     0.98932729   0.68343792  -0.97011386
C      0.15389488   1.76591609  -2.15437110
C      1.63122625   2.11135894   0.03259915
N     -0.54385850   0.28987977   0.44958492
C      2.37379619   0.72558975  -2.15300824
C      3.42095235  -1.19769548   2.64142060
C      3.92238425  -1.47202846   1.39441687
C      3.10769479  -1.23092436   0.28201574
N      1.90646359  -0.66904193   0.39370803
C      1.37750221  -0.52665019   1.62755465
C      2.10504330  -0.75316854   2.77470357
C     -0.06055615  -0.17832154   1.61648905
C     -0.86694431  -0.45066286   2.70796627
C     -2.23085791  -0.25661227   2.59471554
C     -2.73953716   0.19005005   1.39289214
C     -1.87039344   0.45390629   0.34149604
H      4.03006705  -1.36015237   3.52099026
H      4.90953971  -1.87890170   1.23387904
O      3.56183824  -1.56546390  -0.92013578
H     -0.43621788  -0.84466628   3.61599604
H     -2.88940300  -0.47716202   3.42447455
H     -3.79722665   0.33425240   1.23852261
C     -2.41563060   0.93313936  -0.97133361
O      2.01874956   3.00048812   0.62902653
O     -0.28977870   2.42597637  -2.97373010
O      3.17550183   0.74775048  -2.96105394
H      2.79794133  -1.76167940  -1.50772069
H     -2.06548808   1.95696833  -1.15056766
H     -2.02636567   0.28993158  -1.77107806
O     -3.81940177   0.90983559  -0.93981312
C     -4.36712887   1.35335082  -2.16452609
H     -4.06147924   0.70211953  -2.98944078
H     -4.05088832   2.37806345  -2.38853443
H     -5.44903254   1.32536283  -2.06357559
H      1.67819004  -0.57354736   3.74966423
H      0.38793818  -0.52517168  -1.92779945
C      0.17368314  -2.08522542  -1.87606170
O     -0.99606855  -2.19616455  -1.73899069
O      1.25452317  -2.57413735  -2.04026091
